ITEM: TIMESTEP
0
ITEM: NUMBER OF ATOMS
1
ITEM: BOX BOUNDS pp pp pp
0.0000000000000000e+00 1.0000000000000000e+02
0.0000000000000000e+00 1.0000000000000000e+02
0.0000000000000000e+00 1.0000000000000000e+03
ITEM: ATOMS fz
14.7912
ITEM: TIMESTEP
5
ITEM: NUMBER OF ATOMS
1
ITEM: BOX BOUNDS pp pp pp
0.0000000000000000e+00 1.0000000000000000e+02
0.0000000000000000e+00 1.0000000000000000e+02
0.0000000000000000e+00 1.0000000000000000e+03
ITEM: ATOMS fz
36.6659
ITEM: TIMESTEP
10
ITEM: NUMBER OF ATOMS
1
ITEM: BOX BOUNDS pp pp pp
0.0000000000000000e+00 1.0000000000000000e+02
0.0000000000000000e+00 1.0000000000000000e+02
0.0000000000000000e+00 1.0000000000000000e+03
ITEM: ATOMS fz
9.8664
ITEM: TIMESTEP
15
ITEM: NUMBER OF ATOMS
1
ITEM: BOX BOUNDS pp pp pp
0.0000000000000000e+00 1.0000000000000000e+02
0.0000000000000000e+00 1.0000000000000000e+02
0.0000000000000000e+00 1.0000000000000000e+03
ITEM: ATOMS fz
21.7195
ITEM: TIMESTEP
20
ITEM: NUMBER OF ATOMS
1
ITEM: BOX BOUNDS pp pp pp
0.0000000000000000e+00 1.0000000000000000e+02
0.0000000000000000e+00 1.0000000000000000e+02
0.0000000000000000e+00 1.0000000000000000e+03
ITEM: ATOMS fz
17.0754
ITEM: TIMESTEP
25
ITEM: NUMBER OF ATOMS
1
ITEM: BOX BOUNDS pp pp pp
0.0000000000000000e+00 1.0000000000000000e+02
0.0000000000000000e+00 1.0000000000000000e+02
0.0000000000000000e+00 1.0000000000000000e+03
ITEM: ATOMS fz
30.9007
ITEM: TIMESTEP
30
ITEM: NUMBER OF ATOMS
1
ITEM: BOX BOUNDS pp pp pp
0.0000000000000000e+00 1.0000000000000000e+02
0.0000000000000000e+00 1.0000000000000000e+02
0.0000000000000000e+00 1.0000000000000000e+03
ITEM: ATOMS fz
4.80818
ITEM: TIMESTEP
35
ITEM: NUMBER OF ATOMS
1
ITEM: BOX BOUNDS pp pp pp
0.0000000000000000e+00 1.0000000000000000e+02
0.0000000000000000e+00 1.0000000000000000e+02
0.0000000000000000e+00 1.0000000000000000e+03
ITEM: ATOMS fz
22.216
ITEM: TIMESTEP
40
ITEM: NUMBER OF ATOMS
1
ITEM: BOX BOUNDS pp pp pp
0.0000000000000000e+00 1.0000000000000000e+02
0.0000000000000000e+00 1.0000000000000000e+02
0.0000000000000000e+00 1.0000000000000000e+03
ITEM: ATOMS fz
15.8231
ITEM: TIMESTEP
45
ITEM: NUMBER OF ATOMS
1
ITEM: BOX BOUNDS pp pp pp
0.0000000000000000e+00 1.0000000000000000e+02
0.0000000000000000e+00 1.0000000000000000e+02
0.0000000000000000e+00 1.0000000000000000e+03
ITEM: ATOMS fz
-3.27964
ITEM: TIMESTEP
50
ITEM: NUMBER OF ATOMS
1
ITEM: BOX BOUNDS pp pp pp
0.0000000000000000e+00 1.0000000000000000e+02
0.0000000000000000e+00 1.0000000000000000e+02
0.0000000000000000e+00 1.0000000000000000e+03
ITEM: ATOMS fz
8.66654
ITEM: TIMESTEP
55
ITEM: NUMBER OF ATOMS
1
ITEM: BOX BOUNDS pp pp pp
0.0000000000000000e+00 1.0000000000000000e+02
0.0000000000000000e+00 1.0000000000000000e+02
0.0000000000000000e+00 1.0000000000000000e+03
ITEM: ATOMS fz
-6.84997
ITEM: TIMESTEP
60
ITEM: NUMBER OF ATOMS
1
ITEM: BOX BOUNDS pp pp pp
0.0000000000000000e+00 1.0000000000000000e+02
0.0000000000000000e+00 1.0000000000000000e+02
0.0000000000000000e+00 1.0000000000000000e+03
ITEM: ATOMS fz
20.1005
ITEM: TIMESTEP
65
ITEM: NUMBER OF ATOMS
1
ITEM: BOX BOUNDS pp pp pp
0.0000000000000000e+00 1.0000000000000000e+02
0.0000000000000000e+00 1.0000000000000000e+02
0.0000000000000000e+00 1.0000000000000000e+03
ITEM: ATOMS fz
18.2104
ITEM: TIMESTEP
70
ITEM: NUMBER OF ATOMS
1
ITEM: BOX BOUNDS pp pp pp
0.0000000000000000e+00 1.0000000000000000e+02
0.0000000000000000e+00 1.0000000000000000e+02
0.0000000000000000e+00 1.0000000000000000e+03
ITEM: ATOMS fz
-13.6229
ITEM: TIMESTEP
75
ITEM: NUMBER OF ATOMS
1
ITEM: BOX BOUNDS pp pp pp
0.0000000000000000e+00 1.0000000000000000e+02
0.0000000000000000e+00 1.0000000000000000e+02
0.0000000000000000e+00 1.0000000000000000e+03
ITEM: ATOMS fz
-4.29643
ITEM: TIMESTEP
80
ITEM: NUMBER OF ATOMS
1
ITEM: BOX BOUNDS pp pp pp
0.0000000000000000e+00 1.0000000000000000e+02
0.0000000000000000e+00 1.0000000000000000e+02
0.0000000000000000e+00 1.0000000000000000e+03
ITEM: ATOMS fz
-14.0206
ITEM: TIMESTEP
85
ITEM: NUMBER OF ATOMS
1
ITEM: BOX BOUNDS pp pp pp
0.0000000000000000e+00 1.0000000000000000e+02
0.0000000000000000e+00 1.0000000000000000e+02
0.0000000000000000e+00 1.0000000000000000e+03
ITEM: ATOMS fz
-10.5053
ITEM: TIMESTEP
90
ITEM: NUMBER OF ATOMS
1
ITEM: BOX BOUNDS pp pp pp
0.0000000000000000e+00 1.0000000000000000e+02
0.0000000000000000e+00 1.0000000000000000e+02
0.0000000000000000e+00 1.0000000000000000e+03
ITEM: ATOMS fz
7.01865
ITEM: TIMESTEP
95
ITEM: NUMBER OF ATOMS
1
ITEM: BOX BOUNDS pp pp pp
0.0000000000000000e+00 1.0000000000000000e+02
0.0000000000000000e+00 1.0000000000000000e+02
0.0000000000000000e+00 1.0000000000000000e+03
ITEM: ATOMS fz
2.28987
ITEM: TIMESTEP
100
ITEM: NUMBER OF ATOMS
1
ITEM: BOX BOUNDS pp pp pp
0.0000000000000000e+00 1.0000000000000000e+02
0.0000000000000000e+00 1.0000000000000000e+02
0.0000000000000000e+00 1.0000000000000000e+03
ITEM: ATOMS fz
14.7036
ITEM: TIMESTEP
105
ITEM: NUMBER OF ATOMS
1
ITEM: BOX BOUNDS pp pp pp
0.0000000000000000e+00 1.0000000000000000e+02
0.0000000000000000e+00 1.0000000000000000e+02
0.0000000000000000e+00 1.0000000000000000e+03
ITEM: ATOMS fz
27.4263
ITEM: TIMESTEP
110
ITEM: NUMBER OF ATOMS
1
ITEM: BOX BOUNDS pp pp pp
0.0000000000000000e+00 1.0000000000000000e+02
0.0000000000000000e+00 1.0000000000000000e+02
0.0000000000000000e+00 1.0000000000000000e+03
ITEM: ATOMS fz
-14.1737
ITEM: TIMESTEP
115
ITEM: NUMBER OF ATOMS
1
ITEM: BOX BOUNDS pp pp pp
0.0000000000000000e+00 1.0000000000000000e+02
0.0000000000000000e+00 1.0000000000000000e+02
0.0000000000000000e+00 1.0000000000000000e+03
ITEM: ATOMS fz
5.29698
ITEM: TIMESTEP
120
ITEM: NUMBER OF ATOMS
1
ITEM: BOX BOUNDS pp pp pp
0.0000000000000000e+00 1.0000000000000000e+02
0.0000000000000000e+00 1.0000000000000000e+02
0.0000000000000000e+00 1.0000000000000000e+03
ITEM: ATOMS fz
-3.0142
ITEM: TIMESTEP
125
ITEM: NUMBER OF ATOMS
1
ITEM: BOX BOUNDS pp pp pp
0.0000000000000000e+00 1.0000000000000000e+02
0.0000000000000000e+00 1.0000000000000000e+02
0.0000000000000000e+00 1.0000000000000000e+03
ITEM: ATOMS fz
-15.2276
ITEM: TIMESTEP
130
ITEM: NUMBER OF ATOMS
1
ITEM: BOX BOUNDS pp pp pp
0.0000000000000000e+00 1.0000000000000000e+02
0.0000000000000000e+00 1.0000000000000000e+02
0.0000000000000000e+00 1.0000000000000000e+03
ITEM: ATOMS fz
-12.4142
ITEM: TIMESTEP
135
ITEM: NUMBER OF ATOMS
1
ITEM: BOX BOUNDS pp pp pp
0.0000000000000000e+00 1.0000000000000000e+02
0.0000000000000000e+00 1.0000000000000000e+02
0.0000000000000000e+00 1.0000000000000000e+03
ITEM: ATOMS fz
-7.55207
ITEM: TIMESTEP
140
ITEM: NUMBER OF ATOMS
1
ITEM: BOX BOUNDS pp pp pp
0.0000000000000000e+00 1.0000000000000000e+02
0.0000000000000000e+00 1.0000000000000000e+02
0.0000000000000000e+00 1.0000000000000000e+03
ITEM: ATOMS fz
-17.1123
ITEM: TIMESTEP
145
ITEM: NUMBER OF ATOMS
1
ITEM: BOX BOUNDS pp pp pp
0.0000000000000000e+00 1.0000000000000000e+02
0.0000000000000000e+00 1.0000000000000000e+02
0.0000000000000000e+00 1.0000000000000000e+03
ITEM: ATOMS fz
13.5672
ITEM: TIMESTEP
150
ITEM: NUMBER OF ATOMS
1
ITEM: BOX BOUNDS pp pp pp
0.0000000000000000e+00 1.0000000000000000e+02
0.0000000000000000e+00 1.0000000000000000e+02
0.0000000000000000e+00 1.0000000000000000e+03
ITEM: ATOMS fz
25.2196
ITEM: TIMESTEP
155
ITEM: NUMBER OF ATOMS
1
ITEM: BOX BOUNDS pp pp pp
0.0000000000000000e+00 1.0000000000000000e+02
0.0000000000000000e+00 1.0000000000000000e+02
0.0000000000000000e+00 1.0000000000000000e+03
ITEM: ATOMS fz
-0.771307
ITEM: TIMESTEP
160
ITEM: NUMBER OF ATOMS
1
ITEM: BOX BOUNDS pp pp pp
0.0000000000000000e+00 1.0000000000000000e+02
0.0000000000000000e+00 1.0000000000000000e+02
0.0000000000000000e+00 1.0000000000000000e+03
ITEM: ATOMS fz
25.1999
ITEM: TIMESTEP
165
ITEM: NUMBER OF ATOMS
1
ITEM: BOX BOUNDS pp pp pp
0.0000000000000000e+00 1.0000000000000000e+02
0.0000000000000000e+00 1.0000000000000000e+02
0.0000000000000000e+00 1.0000000000000000e+03
ITEM: ATOMS fz
6.60541
ITEM: TIMESTEP
170
ITEM: NUMBER OF ATOMS
1
ITEM: BOX BOUNDS pp pp pp
0.0000000000000000e+00 1.0000000000000000e+02
0.0000000000000000e+00 1.0000000000000000e+02
0.0000000000000000e+00 1.0000000000000000e+03
ITEM: ATOMS fz
-3.63391
ITEM: TIMESTEP
175
ITEM: NUMBER OF ATOMS
1
ITEM: BOX BOUNDS pp pp pp
0.0000000000000000e+00 1.0000000000000000e+02
0.0000000000000000e+00 1.0000000000000000e+02
0.0000000000000000e+00 1.0000000000000000e+03
ITEM: ATOMS fz
3.56741
ITEM: TIMESTEP
180
ITEM: NUMBER OF ATOMS
1
ITEM: BOX BOUNDS pp pp pp
0.0000000000000000e+00 1.0000000000000000e+02
0.0000000000000000e+00 1.0000000000000000e+02
0.0000000000000000e+00 1.0000000000000000e+03
ITEM: ATOMS fz
-7.25795
ITEM: TIMESTEP
185
ITEM: NUMBER OF ATOMS
1
ITEM: BOX BOUNDS pp pp pp
0.0000000000000000e+00 1.0000000000000000e+02
0.0000000000000000e+00 1.0000000000000000e+02
0.0000000000000000e+00 1.0000000000000000e+03
ITEM: ATOMS fz
3.4333
ITEM: TIMESTEP
190
ITEM: NUMBER OF ATOMS
1
ITEM: BOX BOUNDS pp pp pp
0.0000000000000000e+00 1.0000000000000000e+02
0.0000000000000000e+00 1.0000000000000000e+02
0.0000000000000000e+00 1.0000000000000000e+03
ITEM: ATOMS fz
-12.4716
ITEM: TIMESTEP
195
ITEM: NUMBER OF ATOMS
1
ITEM: BOX BOUNDS pp pp pp
0.0000000000000000e+00 1.0000000000000000e+02
0.0000000000000000e+00 1.0000000000000000e+02
0.0000000000000000e+00 1.0000000000000000e+03
ITEM: ATOMS fz
19.2545
ITEM: TIMESTEP
200
ITEM: NUMBER OF ATOMS
1
ITEM: BOX BOUNDS pp pp pp
0.0000000000000000e+00 1.0000000000000000e+02
0.0000000000000000e+00 1.0000000000000000e+02
0.0000000000000000e+00 1.0000000000000000e+03
ITEM: ATOMS fz
-21.4986
ITEM: TIMESTEP
205
ITEM: NUMBER OF ATOMS
1
ITEM: BOX BOUNDS pp pp pp
0.0000000000000000e+00 1.0000000000000000e+02
0.0000000000000000e+00 1.0000000000000000e+02
0.0000000000000000e+00 1.0000000000000000e+03
ITEM: ATOMS fz
0.950453
ITEM: TIMESTEP
210
ITEM: NUMBER OF ATOMS
1
ITEM: BOX BOUNDS pp pp pp
0.0000000000000000e+00 1.0000000000000000e+02
0.0000000000000000e+00 1.0000000000000000e+02
0.0000000000000000e+00 1.0000000000000000e+03
ITEM: ATOMS fz
15.3537
ITEM: TIMESTEP
215
ITEM: NUMBER OF ATOMS
1
ITEM: BOX BOUNDS pp pp pp
0.0000000000000000e+00 1.0000000000000000e+02
0.0000000000000000e+00 1.0000000000000000e+02
0.0000000000000000e+00 1.0000000000000000e+03
ITEM: ATOMS fz
-3.89901
ITEM: TIMESTEP
220
ITEM: NUMBER OF ATOMS
1
ITEM: BOX BOUNDS pp pp pp
0.0000000000000000e+00 1.0000000000000000e+02
0.0000000000000000e+00 1.0000000000000000e+02
0.0000000000000000e+00 1.0000000000000000e+03
ITEM: ATOMS fz
14.2888
ITEM: TIMESTEP
225
ITEM: NUMBER OF ATOMS
1
ITEM: BOX BOUNDS pp pp pp
0.0000000000000000e+00 1.0000000000000000e+02
0.0000000000000000e+00 1.0000000000000000e+02
0.0000000000000000e+00 1.0000000000000000e+03
ITEM: ATOMS fz
-8.29669
ITEM: TIMESTEP
230
ITEM: NUMBER OF ATOMS
1
ITEM: BOX BOUNDS pp pp pp
0.0000000000000000e+00 1.0000000000000000e+02
0.0000000000000000e+00 1.0000000000000000e+02
0.0000000000000000e+00 1.0000000000000000e+03
ITEM: ATOMS fz
-14.2448
ITEM: TIMESTEP
235
ITEM: NUMBER OF ATOMS
1
ITEM: BOX BOUNDS pp pp pp
0.0000000000000000e+00 1.0000000000000000e+02
0.0000000000000000e+00 1.0000000000000000e+02
0.0000000000000000e+00 1.0000000000000000e+03
ITEM: ATOMS fz
10.0656
ITEM: TIMESTEP
240
ITEM: NUMBER OF ATOMS
1
ITEM: BOX BOUNDS pp pp pp
0.0000000000000000e+00 1.0000000000000000e+02
0.0000000000000000e+00 1.0000000000000000e+02
0.0000000000000000e+00 1.0000000000000000e+03
ITEM: ATOMS fz
-0.563153
ITEM: TIMESTEP
245
ITEM: NUMBER OF ATOMS
1
ITEM: BOX BOUNDS pp pp pp
0.0000000000000000e+00 1.0000000000000000e+02
0.0000000000000000e+00 1.0000000000000000e+02
0.0000000000000000e+00 1.0000000000000000e+03
ITEM: ATOMS fz
-2.60609
ITEM: TIMESTEP
250
ITEM: NUMBER OF ATOMS
1
ITEM: BOX BOUNDS pp pp pp
0.0000000000000000e+00 1.0000000000000000e+02
0.0000000000000000e+00 1.0000000000000000e+02
0.0000000000000000e+00 1.0000000000000000e+03
ITEM: ATOMS fz
-20.7385
ITEM: TIMESTEP
255
ITEM: NUMBER OF ATOMS
1
ITEM: BOX BOUNDS pp pp pp
0.0000000000000000e+00 1.0000000000000000e+02
0.0000000000000000e+00 1.0000000000000000e+02
0.0000000000000000e+00 1.0000000000000000e+03
ITEM: ATOMS fz
-17.8271
ITEM: TIMESTEP
260
ITEM: NUMBER OF ATOMS
1
ITEM: BOX BOUNDS pp pp pp
0.0000000000000000e+00 1.0000000000000000e+02
0.0000000000000000e+00 1.0000000000000000e+02
0.0000000000000000e+00 1.0000000000000000e+03
ITEM: ATOMS fz
11.7475
ITEM: TIMESTEP
265
ITEM: NUMBER OF ATOMS
1
ITEM: BOX BOUNDS pp pp pp
0.0000000000000000e+00 1.0000000000000000e+02
0.0000000000000000e+00 1.0000000000000000e+02
0.0000000000000000e+00 1.0000000000000000e+03
ITEM: ATOMS fz
-13.2711
ITEM: TIMESTEP
270
ITEM: NUMBER OF ATOMS
1
ITEM: BOX BOUNDS pp pp pp
0.0000000000000000e+00 1.0000000000000000e+02
0.0000000000000000e+00 1.0000000000000000e+02
0.0000000000000000e+00 1.0000000000000000e+03
ITEM: ATOMS fz
-11.6867
ITEM: TIMESTEP
275
ITEM: NUMBER OF ATOMS
1
ITEM: BOX BOUNDS pp pp pp
0.0000000000000000e+00 1.0000000000000000e+02
0.0000000000000000e+00 1.0000000000000000e+02
0.0000000000000000e+00 1.0000000000000000e+03
ITEM: ATOMS fz
7.52245
ITEM: TIMESTEP
280
ITEM: NUMBER OF ATOMS
1
ITEM: BOX BOUNDS pp pp pp
0.0000000000000000e+00 1.0000000000000000e+02
0.0000000000000000e+00 1.0000000000000000e+02
0.0000000000000000e+00 1.0000000000000000e+03
ITEM: ATOMS fz
5.70216
ITEM: TIMESTEP
285
ITEM: NUMBER OF ATOMS
1
ITEM: BOX BOUNDS pp pp pp
0.0000000000000000e+00 1.0000000000000000e+02
0.0000000000000000e+00 1.0000000000000000e+02
0.0000000000000000e+00 1.0000000000000000e+03
ITEM: ATOMS fz
3.38084
ITEM: TIMESTEP
290
ITEM: NUMBER OF ATOMS
1
ITEM: BOX BOUNDS pp pp pp
0.0000000000000000e+00 1.0000000000000000e+02
0.0000000000000000e+00 1.0000000000000000e+02
0.0000000000000000e+00 1.0000000000000000e+03
ITEM: ATOMS fz
-20.2505
ITEM: TIMESTEP
295
ITEM: NUMBER OF ATOMS
1
ITEM: BOX BOUNDS pp pp pp
0.0000000000000000e+00 1.0000000000000000e+02
0.0000000000000000e+00 1.0000000000000000e+02
0.0000000000000000e+00 1.0000000000000000e+03
ITEM: ATOMS fz
-22.8717
ITEM: TIMESTEP
300
ITEM: NUMBER OF ATOMS
1
ITEM: BOX BOUNDS pp pp pp
0.0000000000000000e+00 1.0000000000000000e+02
0.0000000000000000e+00 1.0000000000000000e+02
0.0000000000000000e+00 1.0000000000000000e+03
ITEM: ATOMS fz
-28.3242
ITEM: TIMESTEP
305
ITEM: NUMBER OF ATOMS
1
ITEM: BOX BOUNDS pp pp pp
0.0000000000000000e+00 1.0000000000000000e+02
0.0000000000000000e+00 1.0000000000000000e+02
0.0000000000000000e+00 1.0000000000000000e+03
ITEM: ATOMS fz
11.7264
ITEM: TIMESTEP
310
ITEM: NUMBER OF ATOMS
1
ITEM: BOX BOUNDS pp pp pp
0.0000000000000000e+00 1.0000000000000000e+02
0.0000000000000000e+00 1.0000000000000000e+02
0.0000000000000000e+00 1.0000000000000000e+03
ITEM: ATOMS fz
-23.2156
ITEM: TIMESTEP
315
ITEM: NUMBER OF ATOMS
1
ITEM: BOX BOUNDS pp pp pp
0.0000000000000000e+00 1.0000000000000000e+02
0.0000000000000000e+00 1.0000000000000000e+02
0.0000000000000000e+00 1.0000000000000000e+03
ITEM: ATOMS fz
-20.0235
ITEM: TIMESTEP
320
ITEM: NUMBER OF ATOMS
1
ITEM: BOX BOUNDS pp pp pp
0.0000000000000000e+00 1.0000000000000000e+02
0.0000000000000000e+00 1.0000000000000000e+02
0.0000000000000000e+00 1.0000000000000000e+03
ITEM: ATOMS fz
15.2272
ITEM: TIMESTEP
325
ITEM: NUMBER OF ATOMS
1
ITEM: BOX BOUNDS pp pp pp
0.0000000000000000e+00 1.0000000000000000e+02
0.0000000000000000e+00 1.0000000000000000e+02
0.0000000000000000e+00 1.0000000000000000e+03
ITEM: ATOMS fz
3.24749
ITEM: TIMESTEP
330
ITEM: NUMBER OF ATOMS
1
ITEM: BOX BOUNDS pp pp pp
0.0000000000000000e+00 1.0000000000000000e+02
0.0000000000000000e+00 1.0000000000000000e+02
0.0000000000000000e+00 1.0000000000000000e+03
ITEM: ATOMS fz
2.62259
ITEM: TIMESTEP
335
ITEM: NUMBER OF ATOMS
1
ITEM: BOX BOUNDS pp pp pp
0.0000000000000000e+00 1.0000000000000000e+02
0.0000000000000000e+00 1.0000000000000000e+02
0.0000000000000000e+00 1.0000000000000000e+03
ITEM: ATOMS fz
11.6583
ITEM: TIMESTEP
340
ITEM: NUMBER OF ATOMS
1
ITEM: BOX BOUNDS pp pp pp
0.0000000000000000e+00 1.0000000000000000e+02
0.0000000000000000e+00 1.0000000000000000e+02
0.0000000000000000e+00 1.0000000000000000e+03
ITEM: ATOMS fz
-12.8279
ITEM: TIMESTEP
345
ITEM: NUMBER OF ATOMS
1
ITEM: BOX BOUNDS pp pp pp
0.0000000000000000e+00 1.0000000000000000e+02
0.0000000000000000e+00 1.0000000000000000e+02
0.0000000000000000e+00 1.0000000000000000e+03
ITEM: ATOMS fz
13.0089
ITEM: TIMESTEP
350
ITEM: NUMBER OF ATOMS
1
ITEM: BOX BOUNDS pp pp pp
0.0000000000000000e+00 1.0000000000000000e+02
0.0000000000000000e+00 1.0000000000000000e+02
0.0000000000000000e+00 1.0000000000000000e+03
ITEM: ATOMS fz
-20.2985
ITEM: TIMESTEP
355
ITEM: NUMBER OF ATOMS
1
ITEM: BOX BOUNDS pp pp pp
0.0000000000000000e+00 1.0000000000000000e+02
0.0000000000000000e+00 1.0000000000000000e+02
0.0000000000000000e+00 1.0000000000000000e+03
ITEM: ATOMS fz
1.5934
ITEM: TIMESTEP
360
ITEM: NUMBER OF ATOMS
1
ITEM: BOX BOUNDS pp pp pp
0.0000000000000000e+00 1.0000000000000000e+02
0.0000000000000000e+00 1.0000000000000000e+02
0.0000000000000000e+00 1.0000000000000000e+03
ITEM: ATOMS fz
-12.6457
ITEM: TIMESTEP
365
ITEM: NUMBER OF ATOMS
1
ITEM: BOX BOUNDS pp pp pp
0.0000000000000000e+00 1.0000000000000000e+02
0.0000000000000000e+00 1.0000000000000000e+02
0.0000000000000000e+00 1.0000000000000000e+03
ITEM: ATOMS fz
0.262952
ITEM: TIMESTEP
370
ITEM: NUMBER OF ATOMS
1
ITEM: BOX BOUNDS pp pp pp
0.0000000000000000e+00 1.0000000000000000e+02
0.0000000000000000e+00 1.0000000000000000e+02
0.0000000000000000e+00 1.0000000000000000e+03
ITEM: ATOMS fz
-2.24807
ITEM: TIMESTEP
375
ITEM: NUMBER OF ATOMS
1
ITEM: BOX BOUNDS pp pp pp
0.0000000000000000e+00 1.0000000000000000e+02
0.0000000000000000e+00 1.0000000000000000e+02
0.0000000000000000e+00 1.0000000000000000e+03
ITEM: ATOMS fz
-3.93638
ITEM: TIMESTEP
380
ITEM: NUMBER OF ATOMS
1
ITEM: BOX BOUNDS pp pp pp
0.0000000000000000e+00 1.0000000000000000e+02
0.0000000000000000e+00 1.0000000000000000e+02
0.0000000000000000e+00 1.0000000000000000e+03
ITEM: ATOMS fz
-30.7961
ITEM: TIMESTEP
385
ITEM: NUMBER OF ATOMS
1
ITEM: BOX BOUNDS pp pp pp
0.0000000000000000e+00 1.0000000000000000e+02
0.0000000000000000e+00 1.0000000000000000e+02
0.0000000000000000e+00 1.0000000000000000e+03
ITEM: ATOMS fz
11.6298
ITEM: TIMESTEP
390
ITEM: NUMBER OF ATOMS
1
ITEM: BOX BOUNDS pp pp pp
0.0000000000000000e+00 1.0000000000000000e+02
0.0000000000000000e+00 1.0000000000000000e+02
0.0000000000000000e+00 1.0000000000000000e+03
ITEM: ATOMS fz
-30.6423
ITEM: TIMESTEP
395
ITEM: NUMBER OF ATOMS
1
ITEM: BOX BOUNDS pp pp pp
0.0000000000000000e+00 1.0000000000000000e+02
0.0000000000000000e+00 1.0000000000000000e+02
0.0000000000000000e+00 1.0000000000000000e+03
ITEM: ATOMS fz
-11.748
ITEM: TIMESTEP
400
ITEM: NUMBER OF ATOMS
1
ITEM: BOX BOUNDS pp pp pp
0.0000000000000000e+00 1.0000000000000000e+02
0.0000000000000000e+00 1.0000000000000000e+02
0.0000000000000000e+00 1.0000000000000000e+03
ITEM: ATOMS fz
-27.0722
ITEM: TIMESTEP
405
ITEM: NUMBER OF ATOMS
1
ITEM: BOX BOUNDS pp pp pp
0.0000000000000000e+00 1.0000000000000000e+02
0.0000000000000000e+00 1.0000000000000000e+02
0.0000000000000000e+00 1.0000000000000000e+03
ITEM: ATOMS fz
-27.7219
ITEM: TIMESTEP
410
ITEM: NUMBER OF ATOMS
1
ITEM: BOX BOUNDS pp pp pp
0.0000000000000000e+00 1.0000000000000000e+02
0.0000000000000000e+00 1.0000000000000000e+02
0.0000000000000000e+00 1.0000000000000000e+03
ITEM: ATOMS fz
-12.6591
ITEM: TIMESTEP
415
ITEM: NUMBER OF ATOMS
1
ITEM: BOX BOUNDS pp pp pp
0.0000000000000000e+00 1.0000000000000000e+02
0.0000000000000000e+00 1.0000000000000000e+02
0.0000000000000000e+00 1.0000000000000000e+03
ITEM: ATOMS fz
-10.1427
ITEM: TIMESTEP
420
ITEM: NUMBER OF ATOMS
1
ITEM: BOX BOUNDS pp pp pp
0.0000000000000000e+00 1.0000000000000000e+02
0.0000000000000000e+00 1.0000000000000000e+02
0.0000000000000000e+00 1.0000000000000000e+03
ITEM: ATOMS fz
-26.7682
ITEM: TIMESTEP
425
ITEM: NUMBER OF ATOMS
1
ITEM: BOX BOUNDS pp pp pp
0.0000000000000000e+00 1.0000000000000000e+02
0.0000000000000000e+00 1.0000000000000000e+02
0.0000000000000000e+00 1.0000000000000000e+03
ITEM: ATOMS fz
13.9289
ITEM: TIMESTEP
430
ITEM: NUMBER OF ATOMS
1
ITEM: BOX BOUNDS pp pp pp
0.0000000000000000e+00 1.0000000000000000e+02
0.0000000000000000e+00 1.0000000000000000e+02
0.0000000000000000e+00 1.0000000000000000e+03
ITEM: ATOMS fz
1.97028
ITEM: TIMESTEP
435
ITEM: NUMBER OF ATOMS
1
ITEM: BOX BOUNDS pp pp pp
0.0000000000000000e+00 1.0000000000000000e+02
0.0000000000000000e+00 1.0000000000000000e+02
0.0000000000000000e+00 1.0000000000000000e+03
ITEM: ATOMS fz
8.16496
ITEM: TIMESTEP
440
ITEM: NUMBER OF ATOMS
1
ITEM: BOX BOUNDS pp pp pp
0.0000000000000000e+00 1.0000000000000000e+02
0.0000000000000000e+00 1.0000000000000000e+02
0.0000000000000000e+00 1.0000000000000000e+03
ITEM: ATOMS fz
-1.81055
ITEM: TIMESTEP
445
ITEM: NUMBER OF ATOMS
1
ITEM: BOX BOUNDS pp pp pp
0.0000000000000000e+00 1.0000000000000000e+02
0.0000000000000000e+00 1.0000000000000000e+02
0.0000000000000000e+00 1.0000000000000000e+03
ITEM: ATOMS fz
-13.5277
ITEM: TIMESTEP
450
ITEM: NUMBER OF ATOMS
1
ITEM: BOX BOUNDS pp pp pp
0.0000000000000000e+00 1.0000000000000000e+02
0.0000000000000000e+00 1.0000000000000000e+02
0.0000000000000000e+00 1.0000000000000000e+03
ITEM: ATOMS fz
-16.0439
ITEM: TIMESTEP
455
ITEM: NUMBER OF ATOMS
1
ITEM: BOX BOUNDS pp pp pp
0.0000000000000000e+00 1.0000000000000000e+02
0.0000000000000000e+00 1.0000000000000000e+02
0.0000000000000000e+00 1.0000000000000000e+03
ITEM: ATOMS fz
-25.5621
ITEM: TIMESTEP
460
ITEM: NUMBER OF ATOMS
1
ITEM: BOX BOUNDS pp pp pp
0.0000000000000000e+00 1.0000000000000000e+02
0.0000000000000000e+00 1.0000000000000000e+02
0.0000000000000000e+00 1.0000000000000000e+03
ITEM: ATOMS fz
4.77355
ITEM: TIMESTEP
465
ITEM: NUMBER OF ATOMS
1
ITEM: BOX BOUNDS pp pp pp
0.0000000000000000e+00 1.0000000000000000e+02
0.0000000000000000e+00 1.0000000000000000e+02
0.0000000000000000e+00 1.0000000000000000e+03
ITEM: ATOMS fz
14.5543
ITEM: TIMESTEP
470
ITEM: NUMBER OF ATOMS
1
ITEM: BOX BOUNDS pp pp pp
0.0000000000000000e+00 1.0000000000000000e+02
0.0000000000000000e+00 1.0000000000000000e+02
0.0000000000000000e+00 1.0000000000000000e+03
ITEM: ATOMS fz
-24.8478
ITEM: TIMESTEP
475
ITEM: NUMBER OF ATOMS
1
ITEM: BOX BOUNDS pp pp pp
0.0000000000000000e+00 1.0000000000000000e+02
0.0000000000000000e+00 1.0000000000000000e+02
0.0000000000000000e+00 1.0000000000000000e+03
ITEM: ATOMS fz
-7.51656
ITEM: TIMESTEP
480
ITEM: NUMBER OF ATOMS
1
ITEM: BOX BOUNDS pp pp pp
0.0000000000000000e+00 1.0000000000000000e+02
0.0000000000000000e+00 1.0000000000000000e+02
0.0000000000000000e+00 1.0000000000000000e+03
ITEM: ATOMS fz
-26.4104
ITEM: TIMESTEP
485
ITEM: NUMBER OF ATOMS
1
ITEM: BOX BOUNDS pp pp pp
0.0000000000000000e+00 1.0000000000000000e+02
0.0000000000000000e+00 1.0000000000000000e+02
0.0000000000000000e+00 1.0000000000000000e+03
ITEM: ATOMS fz
-27.7106
ITEM: TIMESTEP
490
ITEM: NUMBER OF ATOMS
1
ITEM: BOX BOUNDS pp pp pp
0.0000000000000000e+00 1.0000000000000000e+02
0.0000000000000000e+00 1.0000000000000000e+02
0.0000000000000000e+00 1.0000000000000000e+03
ITEM: ATOMS fz
-22.1615
ITEM: TIMESTEP
495
ITEM: NUMBER OF ATOMS
1
ITEM: BOX BOUNDS pp pp pp
0.0000000000000000e+00 1.0000000000000000e+02
0.0000000000000000e+00 1.0000000000000000e+02
0.0000000000000000e+00 1.0000000000000000e+03
ITEM: ATOMS fz
-4.81849
ITEM: TIMESTEP
500
ITEM: NUMBER OF ATOMS
1
ITEM: BOX BOUNDS pp pp pp
0.0000000000000000e+00 1.0000000000000000e+02
0.0000000000000000e+00 1.0000000000000000e+02
0.0000000000000000e+00 1.0000000000000000e+03
ITEM: ATOMS fz
-26.139
ITEM: TIMESTEP
505
ITEM: NUMBER OF ATOMS
1
ITEM: BOX BOUNDS pp pp pp
0.0000000000000000e+00 1.0000000000000000e+02
0.0000000000000000e+00 1.0000000000000000e+02
0.0000000000000000e+00 1.0000000000000000e+03
ITEM: ATOMS fz
4.45923
ITEM: TIMESTEP
510
ITEM: NUMBER OF ATOMS
1
ITEM: BOX BOUNDS pp pp pp
0.0000000000000000e+00 1.0000000000000000e+02
0.0000000000000000e+00 1.0000000000000000e+02
0.0000000000000000e+00 1.0000000000000000e+03
ITEM: ATOMS fz
-1.49424
ITEM: TIMESTEP
515
ITEM: NUMBER OF ATOMS
1
ITEM: BOX BOUNDS pp pp pp
0.0000000000000000e+00 1.0000000000000000e+02
0.0000000000000000e+00 1.0000000000000000e+02
0.0000000000000000e+00 1.0000000000000000e+03
ITEM: ATOMS fz
-6.9078
ITEM: TIMESTEP
520
ITEM: NUMBER OF ATOMS
1
ITEM: BOX BOUNDS pp pp pp
0.0000000000000000e+00 1.0000000000000000e+02
0.0000000000000000e+00 1.0000000000000000e+02
0.0000000000000000e+00 1.0000000000000000e+03
ITEM: ATOMS fz
1.46377
ITEM: TIMESTEP
525
ITEM: NUMBER OF ATOMS
1
ITEM: BOX BOUNDS pp pp pp
0.0000000000000000e+00 1.0000000000000000e+02
0.0000000000000000e+00 1.0000000000000000e+02
0.0000000000000000e+00 1.0000000000000000e+03
ITEM: ATOMS fz
10.7981
ITEM: TIMESTEP
530
ITEM: NUMBER OF ATOMS
1
ITEM: BOX BOUNDS pp pp pp
0.0000000000000000e+00 1.0000000000000000e+02
0.0000000000000000e+00 1.0000000000000000e+02
0.0000000000000000e+00 1.0000000000000000e+03
ITEM: ATOMS fz
-18.5214
ITEM: TIMESTEP
535
ITEM: NUMBER OF ATOMS
1
ITEM: BOX BOUNDS pp pp pp
0.0000000000000000e+00 1.0000000000000000e+02
0.0000000000000000e+00 1.0000000000000000e+02
0.0000000000000000e+00 1.0000000000000000e+03
ITEM: ATOMS fz
16.3738
ITEM: TIMESTEP
540
ITEM: NUMBER OF ATOMS
1
ITEM: BOX BOUNDS pp pp pp
0.0000000000000000e+00 1.0000000000000000e+02
0.0000000000000000e+00 1.0000000000000000e+02
0.0000000000000000e+00 1.0000000000000000e+03
ITEM: ATOMS fz
15.0726
ITEM: TIMESTEP
545
ITEM: NUMBER OF ATOMS
1
ITEM: BOX BOUNDS pp pp pp
0.0000000000000000e+00 1.0000000000000000e+02
0.0000000000000000e+00 1.0000000000000000e+02
0.0000000000000000e+00 1.0000000000000000e+03
ITEM: ATOMS fz
-9.27734
ITEM: TIMESTEP
550
ITEM: NUMBER OF ATOMS
1
ITEM: BOX BOUNDS pp pp pp
0.0000000000000000e+00 1.0000000000000000e+02
0.0000000000000000e+00 1.0000000000000000e+02
0.0000000000000000e+00 1.0000000000000000e+03
ITEM: ATOMS fz
-23.0226
ITEM: TIMESTEP
555
ITEM: NUMBER OF ATOMS
1
ITEM: BOX BOUNDS pp pp pp
0.0000000000000000e+00 1.0000000000000000e+02
0.0000000000000000e+00 1.0000000000000000e+02
0.0000000000000000e+00 1.0000000000000000e+03
ITEM: ATOMS fz
-15.6388
ITEM: TIMESTEP
560
ITEM: NUMBER OF ATOMS
1
ITEM: BOX BOUNDS pp pp pp
0.0000000000000000e+00 1.0000000000000000e+02
0.0000000000000000e+00 1.0000000000000000e+02
0.0000000000000000e+00 1.0000000000000000e+03
ITEM: ATOMS fz
-16.0185
ITEM: TIMESTEP
565
ITEM: NUMBER OF ATOMS
1
ITEM: BOX BOUNDS pp pp pp
0.0000000000000000e+00 1.0000000000000000e+02
0.0000000000000000e+00 1.0000000000000000e+02
0.0000000000000000e+00 1.0000000000000000e+03
ITEM: ATOMS fz
-8.87255
ITEM: TIMESTEP
570
ITEM: NUMBER OF ATOMS
1
ITEM: BOX BOUNDS pp pp pp
0.0000000000000000e+00 1.0000000000000000e+02
0.0000000000000000e+00 1.0000000000000000e+02
0.0000000000000000e+00 1.0000000000000000e+03
ITEM: ATOMS fz
18.1854
ITEM: TIMESTEP
575
ITEM: NUMBER OF ATOMS
1
ITEM: BOX BOUNDS pp pp pp
0.0000000000000000e+00 1.0000000000000000e+02
0.0000000000000000e+00 1.0000000000000000e+02
0.0000000000000000e+00 1.0000000000000000e+03
ITEM: ATOMS fz
0.0280687
ITEM: TIMESTEP
580
ITEM: NUMBER OF ATOMS
1
ITEM: BOX BOUNDS pp pp pp
0.0000000000000000e+00 1.0000000000000000e+02
0.0000000000000000e+00 1.0000000000000000e+02
0.0000000000000000e+00 1.0000000000000000e+03
ITEM: ATOMS fz
-1.12435
ITEM: TIMESTEP
585
ITEM: NUMBER OF ATOMS
1
ITEM: BOX BOUNDS pp pp pp
0.0000000000000000e+00 1.0000000000000000e+02
0.0000000000000000e+00 1.0000000000000000e+02
0.0000000000000000e+00 1.0000000000000000e+03
ITEM: ATOMS fz
10.9828
ITEM: TIMESTEP
590
ITEM: NUMBER OF ATOMS
1
ITEM: BOX BOUNDS pp pp pp
0.0000000000000000e+00 1.0000000000000000e+02
0.0000000000000000e+00 1.0000000000000000e+02
0.0000000000000000e+00 1.0000000000000000e+03
ITEM: ATOMS fz
-17.0525
ITEM: TIMESTEP
595
ITEM: NUMBER OF ATOMS
1
ITEM: BOX BOUNDS pp pp pp
0.0000000000000000e+00 1.0000000000000000e+02
0.0000000000000000e+00 1.0000000000000000e+02
0.0000000000000000e+00 1.0000000000000000e+03
ITEM: ATOMS fz
21.1097
ITEM: TIMESTEP
600
ITEM: NUMBER OF ATOMS
1
ITEM: BOX BOUNDS pp pp pp
0.0000000000000000e+00 1.0000000000000000e+02
0.0000000000000000e+00 1.0000000000000000e+02
0.0000000000000000e+00 1.0000000000000000e+03
ITEM: ATOMS fz
23.9433
ITEM: TIMESTEP
605
ITEM: NUMBER OF ATOMS
1
ITEM: BOX BOUNDS pp pp pp
0.0000000000000000e+00 1.0000000000000000e+02
0.0000000000000000e+00 1.0000000000000000e+02
0.0000000000000000e+00 1.0000000000000000e+03
ITEM: ATOMS fz
-2.41858
ITEM: TIMESTEP
610
ITEM: NUMBER OF ATOMS
1
ITEM: BOX BOUNDS pp pp pp
0.0000000000000000e+00 1.0000000000000000e+02
0.0000000000000000e+00 1.0000000000000000e+02
0.0000000000000000e+00 1.0000000000000000e+03
ITEM: ATOMS fz
14.6889
ITEM: TIMESTEP
615
ITEM: NUMBER OF ATOMS
1
ITEM: BOX BOUNDS pp pp pp
0.0000000000000000e+00 1.0000000000000000e+02
0.0000000000000000e+00 1.0000000000000000e+02
0.0000000000000000e+00 1.0000000000000000e+03
ITEM: ATOMS fz
-1.69635
ITEM: TIMESTEP
620
ITEM: NUMBER OF ATOMS
1
ITEM: BOX BOUNDS pp pp pp
0.0000000000000000e+00 1.0000000000000000e+02
0.0000000000000000e+00 1.0000000000000000e+02
0.0000000000000000e+00 1.0000000000000000e+03
ITEM: ATOMS fz
-13.9351
ITEM: TIMESTEP
625
ITEM: NUMBER OF ATOMS
1
ITEM: BOX BOUNDS pp pp pp
0.0000000000000000e+00 1.0000000000000000e+02
0.0000000000000000e+00 1.0000000000000000e+02
0.0000000000000000e+00 1.0000000000000000e+03
ITEM: ATOMS fz
10.5347
ITEM: TIMESTEP
630
ITEM: NUMBER OF ATOMS
1
ITEM: BOX BOUNDS pp pp pp
0.0000000000000000e+00 1.0000000000000000e+02
0.0000000000000000e+00 1.0000000000000000e+02
0.0000000000000000e+00 1.0000000000000000e+03
ITEM: ATOMS fz
-10.4577
ITEM: TIMESTEP
635
ITEM: NUMBER OF ATOMS
1
ITEM: BOX BOUNDS pp pp pp
0.0000000000000000e+00 1.0000000000000000e+02
0.0000000000000000e+00 1.0000000000000000e+02
0.0000000000000000e+00 1.0000000000000000e+03
ITEM: ATOMS fz
-13.5435
ITEM: TIMESTEP
640
ITEM: NUMBER OF ATOMS
1
ITEM: BOX BOUNDS pp pp pp
0.0000000000000000e+00 1.0000000000000000e+02
0.0000000000000000e+00 1.0000000000000000e+02
0.0000000000000000e+00 1.0000000000000000e+03
ITEM: ATOMS fz
-12.3993
ITEM: TIMESTEP
645
ITEM: NUMBER OF ATOMS
1
ITEM: BOX BOUNDS pp pp pp
0.0000000000000000e+00 1.0000000000000000e+02
0.0000000000000000e+00 1.0000000000000000e+02
0.0000000000000000e+00 1.0000000000000000e+03
ITEM: ATOMS fz
16.0209
ITEM: TIMESTEP
650
ITEM: NUMBER OF ATOMS
1