LAMMPS initial conditions file

    3 atoms
    2 bonds
    1 angles
    2 atom types
    2 bond types
    1 angle types

# LJ distance units based on fibrin monomer initial bond length of 22.25 nm
# set 1 F_LJ = 10 pN => epsilon = 225 nm*pN, sigma = 22.5 nm

#Box Size
    0.0 100.0   xlo xhi
    0.0 100.0   ylo yhi
    0.0 1000.0  zlo zhi

Masses
#atomID     Mass
    1       1
    2       0.67

Atoms
#atomID moleculeID atomType x   y   z 
    1       1       1       0   0   0
    2       1       2       0   0   1
    3       1       1       0   0   2

Bonds
#bondID bondType atom1  atom2
    1       2       1       2
    2       2       2       3

Angles
#angleID angleType atom1  atom2   atom3
    1       1       1       2       3