ITEM: TIMESTEP
0
ITEM: NUMBER OF ENTRIES
2
ITEM: BOX BOUNDS pp pp pp
0.0000000000000000e+00 1.0000000000000000e+02
0.0000000000000000e+00 1.0000000000000000e+02
0.0000000000000000e+00 1.0000000000000000e+03
ITEM: ENTRIES c_btype c_bondlen
1 1 
1 1 
ITEM: TIMESTEP
5
ITEM: NUMBER OF ENTRIES
2
ITEM: BOX BOUNDS pp pp pp
0.0000000000000000e+00 1.0000000000000000e+02
0.0000000000000000e+00 1.0000000000000000e+02
0.0000000000000000e+00 1.0000000000000000e+03
ITEM: ENTRIES c_btype c_bondlen
1 1.0246 
1 0.975893 
ITEM: TIMESTEP
10
ITEM: NUMBER OF ENTRIES
2
ITEM: BOX BOUNDS pp pp pp
0.0000000000000000e+00 1.0000000000000000e+02
0.0000000000000000e+00 1.0000000000000000e+02
0.0000000000000000e+00 1.0000000000000000e+03
ITEM: ENTRIES c_btype c_bondlen
1 1.05277 
1 0.951737 
ITEM: TIMESTEP
15
ITEM: NUMBER OF ENTRIES
2
ITEM: BOX BOUNDS pp pp pp
0.0000000000000000e+00 1.0000000000000000e+02
0.0000000000000000e+00 1.0000000000000000e+02
0.0000000000000000e+00 1.0000000000000000e+03
ITEM: ENTRIES c_btype c_bondlen
1 1.10346 
1 0.918171 
ITEM: TIMESTEP
20
ITEM: NUMBER OF ENTRIES
2
ITEM: BOX BOUNDS pp pp pp
0.0000000000000000e+00 1.0000000000000000e+02
0.0000000000000000e+00 1.0000000000000000e+02
0.0000000000000000e+00 1.0000000000000000e+03
ITEM: ENTRIES c_btype c_bondlen
1 1.15458 
1 0.891348 
ITEM: TIMESTEP
25
ITEM: NUMBER OF ENTRIES
2
ITEM: BOX BOUNDS pp pp pp
0.0000000000000000e+00 1.0000000000000000e+02
0.0000000000000000e+00 1.0000000000000000e+02
0.0000000000000000e+00 1.0000000000000000e+03
ITEM: ENTRIES c_btype c_bondlen
1 1.18186 
1 0.895614 
ITEM: TIMESTEP
30
ITEM: NUMBER OF ENTRIES
2
ITEM: BOX BOUNDS pp pp pp
0.0000000000000000e+00 1.0000000000000000e+02
0.0000000000000000e+00 1.0000000000000000e+02
0.0000000000000000e+00 1.0000000000000000e+03
ITEM: ENTRIES c_btype c_bondlen
1 1.16496 
1 0.955941 
ITEM: TIMESTEP
35
ITEM: NUMBER OF ENTRIES
2
ITEM: BOX BOUNDS pp pp pp
0.0000000000000000e+00 1.0000000000000000e+02
0.0000000000000000e+00 1.0000000000000000e+02
0.0000000000000000e+00 1.0000000000000000e+03
ITEM: ENTRIES c_btype c_bondlen
1 1.13677 
1 1.02021 
ITEM: TIMESTEP
40
ITEM: NUMBER OF ENTRIES
2
ITEM: BOX BOUNDS pp pp pp
0.0000000000000000e+00 1.0000000000000000e+02
0.0000000000000000e+00 1.0000000000000000e+02
0.0000000000000000e+00 1.0000000000000000e+03
ITEM: ENTRIES c_btype c_bondlen
1 1.10185 
1 1.0727 
ITEM: TIMESTEP
45
ITEM: NUMBER OF ENTRIES
2
ITEM: BOX BOUNDS pp pp pp
0.0000000000000000e+00 1.0000000000000000e+02
0.0000000000000000e+00 1.0000000000000000e+02
0.0000000000000000e+00 1.0000000000000000e+03
ITEM: ENTRIES c_btype c_bondlen
1 1.08247 
1 1.09829 
ITEM: TIMESTEP
50
ITEM: NUMBER OF ENTRIES
2
ITEM: BOX BOUNDS pp pp pp
0.0000000000000000e+00 1.0000000000000000e+02
0.0000000000000000e+00 1.0000000000000000e+02
0.0000000000000000e+00 1.0000000000000000e+03
ITEM: ENTRIES c_btype c_bondlen
1 1.07618 
1 1.0888 
ITEM: TIMESTEP
55
ITEM: NUMBER OF ENTRIES
2
ITEM: BOX BOUNDS pp pp pp
0.0000000000000000e+00 1.0000000000000000e+02
0.0000000000000000e+00 1.0000000000000000e+02
0.0000000000000000e+00 1.0000000000000000e+03
ITEM: ENTRIES c_btype c_bondlen
1 1.09643 
1 1.03229 
ITEM: TIMESTEP
60
ITEM: NUMBER OF ENTRIES
2
ITEM: BOX BOUNDS pp pp pp
0.0000000000000000e+00 1.0000000000000000e+02
0.0000000000000000e+00 1.0000000000000000e+02
0.0000000000000000e+00 1.0000000000000000e+03
ITEM: ENTRIES c_btype c_bondlen
1 1.1361 
1 0.954231 
ITEM: TIMESTEP
65
ITEM: NUMBER OF ENTRIES
2
ITEM: BOX BOUNDS pp pp pp
0.0000000000000000e+00 1.0000000000000000e+02
0.0000000000000000e+00 1.0000000000000000e+02
0.0000000000000000e+00 1.0000000000000000e+03
ITEM: ENTRIES c_btype c_bondlen
1 1.17363 
1 0.898389 
ITEM: TIMESTEP
70
ITEM: NUMBER OF ENTRIES
2
ITEM: BOX BOUNDS pp pp pp
0.0000000000000000e+00 1.0000000000000000e+02
0.0000000000000000e+00 1.0000000000000000e+02
0.0000000000000000e+00 1.0000000000000000e+03
ITEM: ENTRIES c_btype c_bondlen
1 1.18851 
1 0.886062 
ITEM: TIMESTEP
75
ITEM: NUMBER OF ENTRIES
2
ITEM: BOX BOUNDS pp pp pp
0.0000000000000000e+00 1.0000000000000000e+02
0.0000000000000000e+00 1.0000000000000000e+02
0.0000000000000000e+00 1.0000000000000000e+03
ITEM: ENTRIES c_btype c_bondlen
1 1.16137 
1 0.91701 
ITEM: TIMESTEP
80
ITEM: NUMBER OF ENTRIES
2
ITEM: BOX BOUNDS pp pp pp
0.0000000000000000e+00 1.0000000000000000e+02
0.0000000000000000e+00 1.0000000000000000e+02
0.0000000000000000e+00 1.0000000000000000e+03
ITEM: ENTRIES c_btype c_bondlen
1 1.12445 
1 0.989327 
ITEM: TIMESTEP
85
ITEM: NUMBER OF ENTRIES
2
ITEM: BOX BOUNDS pp pp pp
0.0000000000000000e+00 1.0000000000000000e+02
0.0000000000000000e+00 1.0000000000000000e+02
0.0000000000000000e+00 1.0000000000000000e+03
ITEM: ENTRIES c_btype c_bondlen
1 1.07842 
1 1.0989 
ITEM: TIMESTEP
90
ITEM: NUMBER OF ENTRIES
2
ITEM: BOX BOUNDS pp pp pp
0.0000000000000000e+00 1.0000000000000000e+02
0.0000000000000000e+00 1.0000000000000000e+02
0.0000000000000000e+00 1.0000000000000000e+03
ITEM: ENTRIES c_btype c_bondlen
1 1.04469 
1 1.20468 
ITEM: TIMESTEP
95
ITEM: NUMBER OF ENTRIES
2
ITEM: BOX BOUNDS pp pp pp
0.0000000000000000e+00 1.0000000000000000e+02
0.0000000000000000e+00 1.0000000000000000e+02
0.0000000000000000e+00 1.0000000000000000e+03
ITEM: ENTRIES c_btype c_bondlen
1 1.03386 
1 1.27127 
ITEM: TIMESTEP
100
ITEM: NUMBER OF ENTRIES
2
ITEM: BOX BOUNDS pp pp pp
0.0000000000000000e+00 1.0000000000000000e+02
0.0000000000000000e+00 1.0000000000000000e+02
0.0000000000000000e+00 1.0000000000000000e+03
ITEM: ENTRIES c_btype c_bondlen
1 1.04649 
1 1.27388 
ITEM: TIMESTEP
105
ITEM: NUMBER OF ENTRIES
2
ITEM: BOX BOUNDS pp pp pp
0.0000000000000000e+00 1.0000000000000000e+02
0.0000000000000000e+00 1.0000000000000000e+02
0.0000000000000000e+00 1.0000000000000000e+03
ITEM: ENTRIES c_btype c_bondlen
1 1.11402 
1 1.18823 
ITEM: TIMESTEP
110
ITEM: NUMBER OF ENTRIES
2
ITEM: BOX BOUNDS pp pp pp
0.0000000000000000e+00 1.0000000000000000e+02
0.0000000000000000e+00 1.0000000000000000e+02
0.0000000000000000e+00 1.0000000000000000e+03
ITEM: ENTRIES c_btype c_bondlen
1 1.18109 
1 1.09048 
ITEM: TIMESTEP
115
ITEM: NUMBER OF ENTRIES
2
ITEM: BOX BOUNDS pp pp pp
0.0000000000000000e+00 1.0000000000000000e+02
0.0000000000000000e+00 1.0000000000000000e+02
0.0000000000000000e+00 1.0000000000000000e+03
ITEM: ENTRIES c_btype c_bondlen
1 1.22976 
1 1.02063 
ITEM: TIMESTEP
120
ITEM: NUMBER OF ENTRIES
2
ITEM: BOX BOUNDS pp pp pp
0.0000000000000000e+00 1.0000000000000000e+02
0.0000000000000000e+00 1.0000000000000000e+02
0.0000000000000000e+00 1.0000000000000000e+03
ITEM: ENTRIES c_btype c_bondlen
1 1.24209 
1 1.00106 
ITEM: TIMESTEP
125
ITEM: NUMBER OF ENTRIES
2
ITEM: BOX BOUNDS pp pp pp
0.0000000000000000e+00 1.0000000000000000e+02
0.0000000000000000e+00 1.0000000000000000e+02
0.0000000000000000e+00 1.0000000000000000e+03
ITEM: ENTRIES c_btype c_bondlen
1 1.24953 
1 1.00751 
ITEM: TIMESTEP
130
ITEM: NUMBER OF ENTRIES
2
ITEM: BOX BOUNDS pp pp pp
0.0000000000000000e+00 1.0000000000000000e+02
0.0000000000000000e+00 1.0000000000000000e+02
0.0000000000000000e+00 1.0000000000000000e+03
ITEM: ENTRIES c_btype c_bondlen
1 1.22187 
1 1.02525 
ITEM: TIMESTEP
135
ITEM: NUMBER OF ENTRIES
2
ITEM: BOX BOUNDS pp pp pp
0.0000000000000000e+00 1.0000000000000000e+02
0.0000000000000000e+00 1.0000000000000000e+02
0.0000000000000000e+00 1.0000000000000000e+03
ITEM: ENTRIES c_btype c_bondlen
1 1.15899 
1 1.06975 
ITEM: TIMESTEP
140
ITEM: NUMBER OF ENTRIES
2
ITEM: BOX BOUNDS pp pp pp
0.0000000000000000e+00 1.0000000000000000e+02
0.0000000000000000e+00 1.0000000000000000e+02
0.0000000000000000e+00 1.0000000000000000e+03
ITEM: ENTRIES c_btype c_bondlen
1 1.10241 
1 1.10924 
ITEM: TIMESTEP
145
ITEM: NUMBER OF ENTRIES
2
ITEM: BOX BOUNDS pp pp pp
0.0000000000000000e+00 1.0000000000000000e+02
0.0000000000000000e+00 1.0000000000000000e+02
0.0000000000000000e+00 1.0000000000000000e+03
ITEM: ENTRIES c_btype c_bondlen
1 1.05548 
1 1.13017 
ITEM: TIMESTEP
150
ITEM: NUMBER OF ENTRIES
2
ITEM: BOX BOUNDS pp pp pp
0.0000000000000000e+00 1.0000000000000000e+02
0.0000000000000000e+00 1.0000000000000000e+02
0.0000000000000000e+00 1.0000000000000000e+03
ITEM: ENTRIES c_btype c_bondlen
1 1.02218 
1 1.14325 
ITEM: TIMESTEP
155
ITEM: NUMBER OF ENTRIES
2
ITEM: BOX BOUNDS pp pp pp
0.0000000000000000e+00 1.0000000000000000e+02
0.0000000000000000e+00 1.0000000000000000e+02
0.0000000000000000e+00 1.0000000000000000e+03
ITEM: ENTRIES c_btype c_bondlen
1 1.01796 
1 1.12769 
ITEM: TIMESTEP
160
ITEM: NUMBER OF ENTRIES
2
ITEM: BOX BOUNDS pp pp pp
0.0000000000000000e+00 1.0000000000000000e+02
0.0000000000000000e+00 1.0000000000000000e+02
0.0000000000000000e+00 1.0000000000000000e+03
ITEM: ENTRIES c_btype c_bondlen
1 1.00567 
1 1.10565 
ITEM: TIMESTEP
165
ITEM: NUMBER OF ENTRIES
2
ITEM: BOX BOUNDS pp pp pp
0.0000000000000000e+00 1.0000000000000000e+02
0.0000000000000000e+00 1.0000000000000000e+02
0.0000000000000000e+00 1.0000000000000000e+03
ITEM: ENTRIES c_btype c_bondlen
1 1.01671 
1 1.08069 
ITEM: TIMESTEP
170
ITEM: NUMBER OF ENTRIES
2
ITEM: BOX BOUNDS pp pp pp
0.0000000000000000e+00 1.0000000000000000e+02
0.0000000000000000e+00 1.0000000000000000e+02
0.0000000000000000e+00 1.0000000000000000e+03
ITEM: ENTRIES c_btype c_bondlen
1 1.03308 
1 1.07281 
ITEM: TIMESTEP
175
ITEM: NUMBER OF ENTRIES
2
ITEM: BOX BOUNDS pp pp pp
0.0000000000000000e+00 1.0000000000000000e+02
0.0000000000000000e+00 1.0000000000000000e+02
0.0000000000000000e+00 1.0000000000000000e+03
ITEM: ENTRIES c_btype c_bondlen
1 1.04484 
1 1.07383 
ITEM: TIMESTEP
180
ITEM: NUMBER OF ENTRIES
2
ITEM: BOX BOUNDS pp pp pp
0.0000000000000000e+00 1.0000000000000000e+02
0.0000000000000000e+00 1.0000000000000000e+02
0.0000000000000000e+00 1.0000000000000000e+03
ITEM: ENTRIES c_btype c_bondlen
1 1.05408 
1 1.0874 
ITEM: TIMESTEP
185
ITEM: NUMBER OF ENTRIES
2
ITEM: BOX BOUNDS pp pp pp
0.0000000000000000e+00 1.0000000000000000e+02
0.0000000000000000e+00 1.0000000000000000e+02
0.0000000000000000e+00 1.0000000000000000e+03
ITEM: ENTRIES c_btype c_bondlen
1 1.07738 
1 1.11248 
ITEM: TIMESTEP
190
ITEM: NUMBER OF ENTRIES
2
ITEM: BOX BOUNDS pp pp pp
0.0000000000000000e+00 1.0000000000000000e+02
0.0000000000000000e+00 1.0000000000000000e+02
0.0000000000000000e+00 1.0000000000000000e+03
ITEM: ENTRIES c_btype c_bondlen
1 1.08322 
1 1.13809 
ITEM: TIMESTEP
195
ITEM: NUMBER OF ENTRIES
2
ITEM: BOX BOUNDS pp pp pp
0.0000000000000000e+00 1.0000000000000000e+02
0.0000000000000000e+00 1.0000000000000000e+02
0.0000000000000000e+00 1.0000000000000000e+03
ITEM: ENTRIES c_btype c_bondlen
1 1.09078 
1 1.1136 
ITEM: TIMESTEP
200
ITEM: NUMBER OF ENTRIES
2
ITEM: BOX BOUNDS pp pp pp
0.0000000000000000e+00 1.0000000000000000e+02
0.0000000000000000e+00 1.0000000000000000e+02
0.0000000000000000e+00 1.0000000000000000e+03
ITEM: ENTRIES c_btype c_bondlen
1 1.11633 
1 1.06519 
ITEM: TIMESTEP
205
ITEM: NUMBER OF ENTRIES
2
ITEM: BOX BOUNDS pp pp pp
0.0000000000000000e+00 1.0000000000000000e+02
0.0000000000000000e+00 1.0000000000000000e+02
0.0000000000000000e+00 1.0000000000000000e+03
ITEM: ENTRIES c_btype c_bondlen
1 1.14902 
1 0.987405 
ITEM: TIMESTEP
210
ITEM: NUMBER OF ENTRIES
2
ITEM: BOX BOUNDS pp pp pp
0.0000000000000000e+00 1.0000000000000000e+02
0.0000000000000000e+00 1.0000000000000000e+02
0.0000000000000000e+00 1.0000000000000000e+03
ITEM: ENTRIES c_btype c_bondlen
1 1.16649 
1 0.934616 
ITEM: TIMESTEP
215
ITEM: NUMBER OF ENTRIES
2
ITEM: BOX BOUNDS pp pp pp
0.0000000000000000e+00 1.0000000000000000e+02
0.0000000000000000e+00 1.0000000000000000e+02
0.0000000000000000e+00 1.0000000000000000e+03
ITEM: ENTRIES c_btype c_bondlen
1 1.16318 
1 0.906011 
ITEM: TIMESTEP
220
ITEM: NUMBER OF ENTRIES
2
ITEM: BOX BOUNDS pp pp pp
0.0000000000000000e+00 1.0000000000000000e+02
0.0000000000000000e+00 1.0000000000000000e+02
0.0000000000000000e+00 1.0000000000000000e+03
ITEM: ENTRIES c_btype c_bondlen
1 1.14235 
1 0.908022 
ITEM: TIMESTEP
225
ITEM: NUMBER OF ENTRIES
2
ITEM: BOX BOUNDS pp pp pp
0.0000000000000000e+00 1.0000000000000000e+02
0.0000000000000000e+00 1.0000000000000000e+02
0.0000000000000000e+00 1.0000000000000000e+03
ITEM: ENTRIES c_btype c_bondlen
1 1.12912 
1 0.914243 
ITEM: TIMESTEP
230
ITEM: NUMBER OF ENTRIES
2
ITEM: BOX BOUNDS pp pp pp
0.0000000000000000e+00 1.0000000000000000e+02
0.0000000000000000e+00 1.0000000000000000e+02
0.0000000000000000e+00 1.0000000000000000e+03
ITEM: ENTRIES c_btype c_bondlen
1 1.11297 
1 0.960664 
ITEM: TIMESTEP
235
ITEM: NUMBER OF ENTRIES
2
ITEM: BOX BOUNDS pp pp pp
0.0000000000000000e+00 1.0000000000000000e+02
0.0000000000000000e+00 1.0000000000000000e+02
0.0000000000000000e+00 1.0000000000000000e+03
ITEM: ENTRIES c_btype c_bondlen
1 1.089 
1 1.03778 
ITEM: TIMESTEP
240
ITEM: NUMBER OF ENTRIES
2
ITEM: BOX BOUNDS pp pp pp
0.0000000000000000e+00 1.0000000000000000e+02
0.0000000000000000e+00 1.0000000000000000e+02
0.0000000000000000e+00 1.0000000000000000e+03
ITEM: ENTRIES c_btype c_bondlen
1 1.06977 
1 1.05821 
ITEM: TIMESTEP
245
ITEM: NUMBER OF ENTRIES
2
ITEM: BOX BOUNDS pp pp pp
0.0000000000000000e+00 1.0000000000000000e+02
0.0000000000000000e+00 1.0000000000000000e+02
0.0000000000000000e+00 1.0000000000000000e+03
ITEM: ENTRIES c_btype c_bondlen
1 1.0508 
1 1.1015 
ITEM: TIMESTEP
250
ITEM: NUMBER OF ENTRIES
2
ITEM: BOX BOUNDS pp pp pp
0.0000000000000000e+00 1.0000000000000000e+02
0.0000000000000000e+00 1.0000000000000000e+02
0.0000000000000000e+00 1.0000000000000000e+03
ITEM: ENTRIES c_btype c_bondlen
1 1.04559 
1 1.15756 
ITEM: TIMESTEP
255
ITEM: NUMBER OF ENTRIES
2
ITEM: BOX BOUNDS pp pp pp
0.0000000000000000e+00 1.0000000000000000e+02
0.0000000000000000e+00 1.0000000000000000e+02
0.0000000000000000e+00 1.0000000000000000e+03
ITEM: ENTRIES c_btype c_bondlen
1 1.0341 
1 1.15889 
ITEM: TIMESTEP
260
ITEM: NUMBER OF ENTRIES
2
ITEM: BOX BOUNDS pp pp pp
0.0000000000000000e+00 1.0000000000000000e+02
0.0000000000000000e+00 1.0000000000000000e+02
0.0000000000000000e+00 1.0000000000000000e+03
ITEM: ENTRIES c_btype c_bondlen
1 1.01841 
1 1.14023 
ITEM: TIMESTEP
265
ITEM: NUMBER OF ENTRIES
2
ITEM: BOX BOUNDS pp pp pp
0.0000000000000000e+00 1.0000000000000000e+02
0.0000000000000000e+00 1.0000000000000000e+02
0.0000000000000000e+00 1.0000000000000000e+03
ITEM: ENTRIES c_btype c_bondlen
1 0.998328 
1 1.06228 
ITEM: TIMESTEP
270
ITEM: NUMBER OF ENTRIES
2
ITEM: BOX BOUNDS pp pp pp
0.0000000000000000e+00 1.0000000000000000e+02
0.0000000000000000e+00 1.0000000000000000e+02
0.0000000000000000e+00 1.0000000000000000e+03
ITEM: ENTRIES c_btype c_bondlen
1 0.993419 
1 0.954489 
ITEM: TIMESTEP
275
ITEM: NUMBER OF ENTRIES
2
ITEM: BOX BOUNDS pp pp pp
0.0000000000000000e+00 1.0000000000000000e+02
0.0000000000000000e+00 1.0000000000000000e+02
0.0000000000000000e+00 1.0000000000000000e+03
ITEM: ENTRIES c_btype c_bondlen
1 1.01888 
1 0.87753 
ITEM: TIMESTEP
280
ITEM: NUMBER OF ENTRIES
2
ITEM: BOX BOUNDS pp pp pp
0.0000000000000000e+00 1.0000000000000000e+02
0.0000000000000000e+00 1.0000000000000000e+02
0.0000000000000000e+00 1.0000000000000000e+03
ITEM: ENTRIES c_btype c_bondlen
1 1.04702 
1 0.807413 
ITEM: TIMESTEP
285
ITEM: NUMBER OF ENTRIES
2
ITEM: BOX BOUNDS pp pp pp
0.0000000000000000e+00 1.0000000000000000e+02
0.0000000000000000e+00 1.0000000000000000e+02
0.0000000000000000e+00 1.0000000000000000e+03
ITEM: ENTRIES c_btype c_bondlen
1 1.07712 
1 0.789745 
ITEM: TIMESTEP
290
ITEM: NUMBER OF ENTRIES
2
ITEM: BOX BOUNDS pp pp pp
0.0000000000000000e+00 1.0000000000000000e+02
0.0000000000000000e+00 1.0000000000000000e+02
0.0000000000000000e+00 1.0000000000000000e+03
ITEM: ENTRIES c_btype c_bondlen
1 1.12243 
1 0.806122 
ITEM: TIMESTEP
295
ITEM: NUMBER OF ENTRIES
2
ITEM: BOX BOUNDS pp pp pp
0.0000000000000000e+00 1.0000000000000000e+02
0.0000000000000000e+00 1.0000000000000000e+02
0.0000000000000000e+00 1.0000000000000000e+03
ITEM: ENTRIES c_btype c_bondlen
1 1.17543 
1 0.853772 
ITEM: TIMESTEP
300
ITEM: NUMBER OF ENTRIES
2
ITEM: BOX BOUNDS pp pp pp
0.0000000000000000e+00 1.0000000000000000e+02
0.0000000000000000e+00 1.0000000000000000e+02
0.0000000000000000e+00 1.0000000000000000e+03
ITEM: ENTRIES c_btype c_bondlen
1 1.22238 
1 0.909369 
ITEM: TIMESTEP
305
ITEM: NUMBER OF ENTRIES
2
ITEM: BOX BOUNDS pp pp pp
0.0000000000000000e+00 1.0000000000000000e+02
0.0000000000000000e+00 1.0000000000000000e+02
0.0000000000000000e+00 1.0000000000000000e+03
ITEM: ENTRIES c_btype c_bondlen
1 1.25034 
1 0.995384 
ITEM: TIMESTEP
310
ITEM: NUMBER OF ENTRIES
2
ITEM: BOX BOUNDS pp pp pp
0.0000000000000000e+00 1.0000000000000000e+02
0.0000000000000000e+00 1.0000000000000000e+02
0.0000000000000000e+00 1.0000000000000000e+03
ITEM: ENTRIES c_btype c_bondlen
1 1.26046 
1 1.05878 
ITEM: TIMESTEP
315
ITEM: NUMBER OF ENTRIES
2
ITEM: BOX BOUNDS pp pp pp
0.0000000000000000e+00 1.0000000000000000e+02
0.0000000000000000e+00 1.0000000000000000e+02
0.0000000000000000e+00 1.0000000000000000e+03
ITEM: ENTRIES c_btype c_bondlen
1 1.24701 
1 1.07741 
ITEM: TIMESTEP
320
ITEM: NUMBER OF ENTRIES
2
ITEM: BOX BOUNDS pp pp pp
0.0000000000000000e+00 1.0000000000000000e+02
0.0000000000000000e+00 1.0000000000000000e+02
0.0000000000000000e+00 1.0000000000000000e+03
ITEM: ENTRIES c_btype c_bondlen
1 1.17186 
1 1.04589 
ITEM: TIMESTEP
325
ITEM: NUMBER OF ENTRIES
2
ITEM: BOX BOUNDS pp pp pp
0.0000000000000000e+00 1.0000000000000000e+02
0.0000000000000000e+00 1.0000000000000000e+02
0.0000000000000000e+00 1.0000000000000000e+03
ITEM: ENTRIES c_btype c_bondlen
1 1.05916 
1 0.982437 
ITEM: TIMESTEP
330
ITEM: NUMBER OF ENTRIES
2
ITEM: BOX BOUNDS pp pp pp
0.0000000000000000e+00 1.0000000000000000e+02
0.0000000000000000e+00 1.0000000000000000e+02
0.0000000000000000e+00 1.0000000000000000e+03
ITEM: ENTRIES c_btype c_bondlen
1 0.93285 
1 0.891568 
ITEM: TIMESTEP
335
ITEM: NUMBER OF ENTRIES
2
ITEM: BOX BOUNDS pp pp pp
0.0000000000000000e+00 1.0000000000000000e+02
0.0000000000000000e+00 1.0000000000000000e+02
0.0000000000000000e+00 1.0000000000000000e+03
ITEM: ENTRIES c_btype c_bondlen
1 0.83822 
1 0.851132 
ITEM: TIMESTEP
340
ITEM: NUMBER OF ENTRIES
2
ITEM: BOX BOUNDS pp pp pp
0.0000000000000000e+00 1.0000000000000000e+02
0.0000000000000000e+00 1.0000000000000000e+02
0.0000000000000000e+00 1.0000000000000000e+03
ITEM: ENTRIES c_btype c_bondlen
1 0.79769 
1 0.855584 
ITEM: TIMESTEP
345
ITEM: NUMBER OF ENTRIES
2
ITEM: BOX BOUNDS pp pp pp
0.0000000000000000e+00 1.0000000000000000e+02
0.0000000000000000e+00 1.0000000000000000e+02
0.0000000000000000e+00 1.0000000000000000e+03
ITEM: ENTRIES c_btype c_bondlen
1 0.8128 
1 0.919398 
ITEM: TIMESTEP
350
ITEM: NUMBER OF ENTRIES
2
ITEM: BOX BOUNDS pp pp pp
0.0000000000000000e+00 1.0000000000000000e+02
0.0000000000000000e+00 1.0000000000000000e+02
0.0000000000000000e+00 1.0000000000000000e+03
ITEM: ENTRIES c_btype c_bondlen
1 0.861849 
1 1.02734 
ITEM: TIMESTEP
355
ITEM: NUMBER OF ENTRIES
2
ITEM: BOX BOUNDS pp pp pp
0.0000000000000000e+00 1.0000000000000000e+02
0.0000000000000000e+00 1.0000000000000000e+02
0.0000000000000000e+00 1.0000000000000000e+03
ITEM: ENTRIES c_btype c_bondlen
1 0.939058 
1 1.14509 
ITEM: TIMESTEP
360
ITEM: NUMBER OF ENTRIES
2
ITEM: BOX BOUNDS pp pp pp
0.0000000000000000e+00 1.0000000000000000e+02
0.0000000000000000e+00 1.0000000000000000e+02
0.0000000000000000e+00 1.0000000000000000e+03
ITEM: ENTRIES c_btype c_bondlen
1 1.00672 
1 1.24282 
ITEM: TIMESTEP
365
ITEM: NUMBER OF ENTRIES
2
ITEM: BOX BOUNDS pp pp pp
0.0000000000000000e+00 1.0000000000000000e+02
0.0000000000000000e+00 1.0000000000000000e+02
0.0000000000000000e+00 1.0000000000000000e+03
ITEM: ENTRIES c_btype c_bondlen
1 1.05484 
1 1.33738 
ITEM: TIMESTEP
370
ITEM: NUMBER OF ENTRIES
2
ITEM: BOX BOUNDS pp pp pp
0.0000000000000000e+00 1.0000000000000000e+02
0.0000000000000000e+00 1.0000000000000000e+02
0.0000000000000000e+00 1.0000000000000000e+03
ITEM: ENTRIES c_btype c_bondlen
1 1.06072 
1 1.37522 
ITEM: TIMESTEP
375
ITEM: NUMBER OF ENTRIES
2
ITEM: BOX BOUNDS pp pp pp
0.0000000000000000e+00 1.0000000000000000e+02
0.0000000000000000e+00 1.0000000000000000e+02
0.0000000000000000e+00 1.0000000000000000e+03
ITEM: ENTRIES c_btype c_bondlen
1 1.0095 
1 1.3131 
ITEM: TIMESTEP
380
ITEM: NUMBER OF ENTRIES
2
ITEM: BOX BOUNDS pp pp pp
0.0000000000000000e+00 1.0000000000000000e+02
0.0000000000000000e+00 1.0000000000000000e+02
0.0000000000000000e+00 1.0000000000000000e+03
ITEM: ENTRIES c_btype c_bondlen
1 0.922001 
1 1.19597 
ITEM: TIMESTEP
385
ITEM: NUMBER OF ENTRIES
2
ITEM: BOX BOUNDS pp pp pp
0.0000000000000000e+00 1.0000000000000000e+02
0.0000000000000000e+00 1.0000000000000000e+02
0.0000000000000000e+00 1.0000000000000000e+03
ITEM: ENTRIES c_btype c_bondlen
1 0.836579 
1 1.03776 
ITEM: TIMESTEP
390
ITEM: NUMBER OF ENTRIES
2
ITEM: BOX BOUNDS pp pp pp
0.0000000000000000e+00 1.0000000000000000e+02
0.0000000000000000e+00 1.0000000000000000e+02
0.0000000000000000e+00 1.0000000000000000e+03
ITEM: ENTRIES c_btype c_bondlen
1 0.790174 
1 0.87158 
ITEM: TIMESTEP
395
ITEM: NUMBER OF ENTRIES
2
ITEM: BOX BOUNDS pp pp pp
0.0000000000000000e+00 1.0000000000000000e+02
0.0000000000000000e+00 1.0000000000000000e+02
0.0000000000000000e+00 1.0000000000000000e+03
ITEM: ENTRIES c_btype c_bondlen
1 0.812243 
1 0.752029 
ITEM: TIMESTEP
400
ITEM: NUMBER OF ENTRIES
2
ITEM: BOX BOUNDS pp pp pp
0.0000000000000000e+00 1.0000000000000000e+02
0.0000000000000000e+00 1.0000000000000000e+02
0.0000000000000000e+00 1.0000000000000000e+03
ITEM: ENTRIES c_btype c_bondlen
1 0.901387 
1 0.702066 
ITEM: TIMESTEP
405
ITEM: NUMBER OF ENTRIES
2
ITEM: BOX BOUNDS pp pp pp
0.0000000000000000e+00 1.0000000000000000e+02
0.0000000000000000e+00 1.0000000000000000e+02
0.0000000000000000e+00 1.0000000000000000e+03
ITEM: ENTRIES c_btype c_bondlen
1 1.05036 
1 0.76767 
ITEM: TIMESTEP
410
ITEM: NUMBER OF ENTRIES
2
ITEM: BOX BOUNDS pp pp pp
0.0000000000000000e+00 1.0000000000000000e+02
0.0000000000000000e+00 1.0000000000000000e+02
0.0000000000000000e+00 1.0000000000000000e+03
ITEM: ENTRIES c_btype c_bondlen
1 1.23223 
1 0.949159 
ITEM: TIMESTEP
415
ITEM: NUMBER OF ENTRIES
2
ITEM: BOX BOUNDS pp pp pp
0.0000000000000000e+00 1.0000000000000000e+02
0.0000000000000000e+00 1.0000000000000000e+02
0.0000000000000000e+00 1.0000000000000000e+03
ITEM: ENTRIES c_btype c_bondlen
1 1.39046 
1 1.16021 
ITEM: TIMESTEP
420
ITEM: NUMBER OF ENTRIES
2
ITEM: BOX BOUNDS pp pp pp
0.0000000000000000e+00 1.0000000000000000e+02
0.0000000000000000e+00 1.0000000000000000e+02
0.0000000000000000e+00 1.0000000000000000e+03
ITEM: ENTRIES c_btype c_bondlen
1 1.50271 
1 1.33164 
ITEM: TIMESTEP
425
ITEM: NUMBER OF ENTRIES
2
ITEM: BOX BOUNDS pp pp pp
0.0000000000000000e+00 1.0000000000000000e+02
0.0000000000000000e+00 1.0000000000000000e+02
0.0000000000000000e+00 1.0000000000000000e+03
ITEM: ENTRIES c_btype c_bondlen
1 1.52422 
1 1.36196 
ITEM: TIMESTEP
430
ITEM: NUMBER OF ENTRIES
2
ITEM: BOX BOUNDS pp pp pp
0.0000000000000000e+00 1.0000000000000000e+02
0.0000000000000000e+00 1.0000000000000000e+02
0.0000000000000000e+00 1.0000000000000000e+03
ITEM: ENTRIES c_btype c_bondlen
1 1.4394 
1 1.26576 
ITEM: TIMESTEP
435
ITEM: NUMBER OF ENTRIES
2
ITEM: BOX BOUNDS pp pp pp
0.0000000000000000e+00 1.0000000000000000e+02
0.0000000000000000e+00 1.0000000000000000e+02
0.0000000000000000e+00 1.0000000000000000e+03
ITEM: ENTRIES c_btype c_bondlen
1 1.26922 
1 1.06356 
ITEM: TIMESTEP
440
ITEM: NUMBER OF ENTRIES
2
ITEM: BOX BOUNDS pp pp pp
0.0000000000000000e+00 1.0000000000000000e+02
0.0000000000000000e+00 1.0000000000000000e+02
0.0000000000000000e+00 1.0000000000000000e+03
ITEM: ENTRIES c_btype c_bondlen
1 1.08324 
1 0.851051 
ITEM: TIMESTEP
445
ITEM: NUMBER OF ENTRIES
2
ITEM: BOX BOUNDS pp pp pp
0.0000000000000000e+00 1.0000000000000000e+02
0.0000000000000000e+00 1.0000000000000000e+02
0.0000000000000000e+00 1.0000000000000000e+03
ITEM: ENTRIES c_btype c_bondlen
1 0.919154 
1 0.673114 
ITEM: TIMESTEP
450
ITEM: NUMBER OF ENTRIES
2
ITEM: BOX BOUNDS pp pp pp
0.0000000000000000e+00 1.0000000000000000e+02
0.0000000000000000e+00 1.0000000000000000e+02
0.0000000000000000e+00 1.0000000000000000e+03
ITEM: ENTRIES c_btype c_bondlen
1 0.789381 
1 0.58529 
ITEM: TIMESTEP
455
ITEM: NUMBER OF ENTRIES
2
ITEM: BOX BOUNDS pp pp pp
0.0000000000000000e+00 1.0000000000000000e+02
0.0000000000000000e+00 1.0000000000000000e+02
0.0000000000000000e+00 1.0000000000000000e+03
ITEM: ENTRIES c_btype c_bondlen
1 0.728922 
1 0.597716 
ITEM: TIMESTEP
460
ITEM: NUMBER OF ENTRIES
2
ITEM: BOX BOUNDS pp pp pp
0.0000000000000000e+00 1.0000000000000000e+02
0.0000000000000000e+00 1.0000000000000000e+02
0.0000000000000000e+00 1.0000000000000000e+03
ITEM: ENTRIES c_btype c_bondlen
1 0.738459 
1 0.712139 
ITEM: TIMESTEP
465
ITEM: NUMBER OF ENTRIES
2
ITEM: BOX BOUNDS pp pp pp
0.0000000000000000e+00 1.0000000000000000e+02
0.0000000000000000e+00 1.0000000000000000e+02
0.0000000000000000e+00 1.0000000000000000e+03
ITEM: ENTRIES c_btype c_bondlen
1 0.823474 
1 0.916007 
ITEM: TIMESTEP
470
ITEM: NUMBER OF ENTRIES
2
ITEM: BOX BOUNDS pp pp pp
0.0000000000000000e+00 1.0000000000000000e+02
0.0000000000000000e+00 1.0000000000000000e+02
0.0000000000000000e+00 1.0000000000000000e+03
ITEM: ENTRIES c_btype c_bondlen
1 0.970194 
1 1.16612 
ITEM: TIMESTEP
475
ITEM: NUMBER OF ENTRIES
2
ITEM: BOX BOUNDS pp pp pp
0.0000000000000000e+00 1.0000000000000000e+02
0.0000000000000000e+00 1.0000000000000000e+02
0.0000000000000000e+00 1.0000000000000000e+03
ITEM: ENTRIES c_btype c_bondlen
1 1.12676 
1 1.38025 
ITEM: TIMESTEP
480
ITEM: NUMBER OF ENTRIES
2
ITEM: BOX BOUNDS pp pp pp
0.0000000000000000e+00 1.0000000000000000e+02
0.0000000000000000e+00 1.0000000000000000e+02
0.0000000000000000e+00 1.0000000000000000e+03
ITEM: ENTRIES c_btype c_bondlen
1 1.22925 
1 1.51461 
ITEM: TIMESTEP
485
ITEM: NUMBER OF ENTRIES
2
ITEM: BOX BOUNDS pp pp pp
0.0000000000000000e+00 1.0000000000000000e+02
0.0000000000000000e+00 1.0000000000000000e+02
0.0000000000000000e+00 1.0000000000000000e+03
ITEM: ENTRIES c_btype c_bondlen
1 1.22548 
1 1.47815 
ITEM: TIMESTEP
490
ITEM: NUMBER OF ENTRIES
2
ITEM: BOX BOUNDS pp pp pp
0.0000000000000000e+00 1.0000000000000000e+02
0.0000000000000000e+00 1.0000000000000000e+02
0.0000000000000000e+00 1.0000000000000000e+03
ITEM: ENTRIES c_btype c_bondlen
1 1.13866 
1 1.31059 
ITEM: TIMESTEP
495
ITEM: NUMBER OF ENTRIES
2
ITEM: BOX BOUNDS pp pp pp
0.0000000000000000e+00 1.0000000000000000e+02
0.0000000000000000e+00 1.0000000000000000e+02
0.0000000000000000e+00 1.0000000000000000e+03
ITEM: ENTRIES c_btype c_bondlen
1 1.0284 
1 1.10134 
ITEM: TIMESTEP
500
ITEM: NUMBER OF ENTRIES
2
ITEM: BOX BOUNDS pp pp pp
0.0000000000000000e+00 1.0000000000000000e+02
0.0000000000000000e+00 1.0000000000000000e+02
0.0000000000000000e+00 1.0000000000000000e+03
ITEM: ENTRIES c_btype c_bondlen
1 0.926453 
1 0.884053 
ITEM: TIMESTEP
505
ITEM: NUMBER OF ENTRIES
2
ITEM: BOX BOUNDS pp pp pp
0.0000000000000000e+00 1.0000000000000000e+02
0.0000000000000000e+00 1.0000000000000000e+02
0.0000000000000000e+00 1.0000000000000000e+03
ITEM: ENTRIES c_btype c_bondlen
1 0.850984 
1 0.700525 
ITEM: TIMESTEP
510
ITEM: NUMBER OF ENTRIES
2
ITEM: BOX BOUNDS pp pp pp
0.0000000000000000e+00 1.0000000000000000e+02
0.0000000000000000e+00 1.0000000000000000e+02
0.0000000000000000e+00 1.0000000000000000e+03
ITEM: ENTRIES c_btype c_bondlen
1 0.850119 
1 0.615777 
ITEM: TIMESTEP
515
ITEM: NUMBER OF ENTRIES
2
ITEM: BOX BOUNDS pp pp pp
0.0000000000000000e+00 1.0000000000000000e+02
0.0000000000000000e+00 1.0000000000000000e+02
0.0000000000000000e+00 1.0000000000000000e+03
ITEM: ENTRIES c_btype c_bondlen
1 0.922936 
1 0.641616 
ITEM: TIMESTEP
520
ITEM: NUMBER OF ENTRIES
2
ITEM: BOX BOUNDS pp pp pp
0.0000000000000000e+00 1.0000000000000000e+02
0.0000000000000000e+00 1.0000000000000000e+02
0.0000000000000000e+00 1.0000000000000000e+03
ITEM: ENTRIES c_btype c_bondlen
1 1.02909 
1 0.740672 
ITEM: TIMESTEP
525
ITEM: NUMBER OF ENTRIES
2
ITEM: BOX BOUNDS pp pp pp
0.0000000000000000e+00 1.0000000000000000e+02
0.0000000000000000e+00 1.0000000000000000e+02
0.0000000000000000e+00 1.0000000000000000e+03
ITEM: ENTRIES c_btype c_bondlen
1 1.15162 
1 0.888352 
ITEM: TIMESTEP
530
ITEM: NUMBER OF ENTRIES
2
ITEM: BOX BOUNDS pp pp pp
0.0000000000000000e+00 1.0000000000000000e+02
0.0000000000000000e+00 1.0000000000000000e+02
0.0000000000000000e+00 1.0000000000000000e+03
ITEM: ENTRIES c_btype c_bondlen
1 1.26314 
1 1.03395 
ITEM: TIMESTEP
535
ITEM: NUMBER OF ENTRIES
2
ITEM: BOX BOUNDS pp pp pp
0.0000000000000000e+00 1.0000000000000000e+02
0.0000000000000000e+00 1.0000000000000000e+02
0.0000000000000000e+00 1.0000000000000000e+03
ITEM: ENTRIES c_btype c_bondlen
1 1.3514 
1 1.13821 
ITEM: TIMESTEP
540
ITEM: NUMBER OF ENTRIES
2
ITEM: BOX BOUNDS pp pp pp
0.0000000000000000e+00 1.0000000000000000e+02
0.0000000000000000e+00 1.0000000000000000e+02
0.0000000000000000e+00 1.0000000000000000e+03
ITEM: ENTRIES c_btype c_bondlen
1 1.39889 
1 1.19215 
ITEM: TIMESTEP
545
ITEM: NUMBER OF ENTRIES
2
ITEM: BOX BOUNDS pp pp pp
0.0000000000000000e+00 1.0000000000000000e+02
0.0000000000000000e+00 1.0000000000000000e+02
0.0000000000000000e+00 1.0000000000000000e+03
ITEM: ENTRIES c_btype c_bondlen
1 1.36295 
1 1.18455 
ITEM: TIMESTEP
550
ITEM: NUMBER OF ENTRIES
2
ITEM: BOX BOUNDS pp pp pp
0.0000000000000000e+00 1.0000000000000000e+02
0.0000000000000000e+00 1.0000000000000000e+02
0.0000000000000000e+00 1.0000000000000000e+03
ITEM: ENTRIES c_btype c_bondlen
1 1.27232 
1 1.14657 
ITEM: TIMESTEP
555
ITEM: NUMBER OF ENTRIES
2
ITEM: BOX BOUNDS pp pp pp
0.0000000000000000e+00 1.0000000000000000e+02
0.0000000000000000e+00 1.0000000000000000e+02
0.0000000000000000e+00 1.0000000000000000e+03
ITEM: ENTRIES c_btype c_bondlen
1 1.15758 
1 1.10745 
ITEM: TIMESTEP
560
ITEM: NUMBER OF ENTRIES
2
ITEM: BOX BOUNDS pp pp pp
0.0000000000000000e+00 1.0000000000000000e+02
0.0000000000000000e+00 1.0000000000000000e+02
0.0000000000000000e+00 1.0000000000000000e+03
ITEM: ENTRIES c_btype c_bondlen
1 1.04238 
1 1.06999 
ITEM: TIMESTEP
565
ITEM: NUMBER OF ENTRIES
2
ITEM: BOX BOUNDS pp pp pp
0.0000000000000000e+00 1.0000000000000000e+02
0.0000000000000000e+00 1.0000000000000000e+02
0.0000000000000000e+00 1.0000000000000000e+03
ITEM: ENTRIES c_btype c_bondlen
1 0.938166 
1 1.05206 