ITEM: TIMESTEP
0
ITEM: NUMBER OF ATOMS
3
ITEM: BOX BOUNDS pp pp pp
0.0000000000000000e+00 1.0000000000000000e+02
0.0000000000000000e+00 1.0000000000000000e+02
0.0000000000000000e+00 1.0000000000000000e+03
ITEM: ATOMS id type x y z ix iy iz
1 1 0 0 0 0 0 0
2 2 0 0 1 0 0 0
3 1 0 0 2 0 0 0
ITEM: TIMESTEP
100
ITEM: NUMBER OF ATOMS
3
ITEM: BOX BOUNDS pp pp pp
0.0000000000000000e+00 1.0000000000000000e+02
0.0000000000000000e+00 1.0000000000000000e+02
0.0000000000000000e+00 1.0000000000000000e+03
ITEM: ATOMS id type x y z ix iy iz
1 1 0 0 0 0 0 0
2 2 -0.105485 -0.145247 0.818278 0 0 0
3 1 -0.177989 -0.045476 2.00748 0 0 0
ITEM: TIMESTEP
200
ITEM: NUMBER OF ATOMS
3
ITEM: BOX BOUNDS pp pp pp
0.0000000000000000e+00 1.0000000000000000e+02
0.0000000000000000e+00 1.0000000000000000e+02
0.0000000000000000e+00 1.0000000000000000e+03
ITEM: ATOMS id type x y z ix iy iz
1 1 0 0 0 0 0 0
2 2 -0.354761 0.0721196 1.13938 0 0 0
3 1 -0.779385 -0.0595788 2.1736 0 0 0
ITEM: TIMESTEP
300
ITEM: NUMBER OF ATOMS
3
ITEM: BOX BOUNDS pp pp pp
0.0000000000000000e+00 1.0000000000000000e+02
0.0000000000000000e+00 1.0000000000000000e+02
0.0000000000000000e+00 1.0000000000000000e+03
ITEM: ATOMS id type x y z ix iy iz
1 1 0 0 0 0 0 0
2 2 99.5301 99.55 1.04679 -1 -1 0
3 1 98.759 99.3539 1.83158 -1 -1 0
ITEM: TIMESTEP
400
ITEM: NUMBER OF ATOMS
3
ITEM: BOX BOUNDS pp pp pp
0.0000000000000000e+00 1.0000000000000000e+02
0.0000000000000000e+00 1.0000000000000000e+02
0.0000000000000000e+00 1.0000000000000000e+03
ITEM: ATOMS id type x y z ix iy iz
1 1 0 0 0 0 0 0
2 2 99.3251 99.3273 0.571575 -1 -1 0
3 1 98.9335 98.293 1.1793 -1 -1 0
ITEM: TIMESTEP
500
ITEM: NUMBER OF ATOMS
3
ITEM: BOX BOUNDS pp pp pp
0.0000000000000000e+00 1.0000000000000000e+02
0.0000000000000000e+00 1.0000000000000000e+02
0.0000000000000000e+00 1.0000000000000000e+03
ITEM: ATOMS id type x y z ix iy iz
1 1 0 0 0 0 0 0
2 2 99.6579 98.7794 0.167798 -1 -1 0
3 1 99.4886 97.678 0.232842 -1 -1 0
ITEM: TIMESTEP
600
ITEM: NUMBER OF ATOMS
3
ITEM: BOX BOUNDS pp pp pp
0.0000000000000000e+00 1.0000000000000000e+02
0.0000000000000000e+00 1.0000000000000000e+02
0.0000000000000000e+00 1.0000000000000000e+03
ITEM: ATOMS id type x y z ix iy iz
1 1 0 0 0 0 0 0
2 2 99.819 98.8397 999.586 -1 -1 -1
3 1 99.8984 97.6861 999.196 -1 -1 -1
ITEM: TIMESTEP
700
ITEM: NUMBER OF ATOMS
3
ITEM: BOX BOUNDS pp pp pp
0.0000000000000000e+00 1.0000000000000000e+02
0.0000000000000000e+00 1.0000000000000000e+02
0.0000000000000000e+00 1.0000000000000000e+03
ITEM: ATOMS id type x y z ix iy iz
1 1 0 0 0 0 0 0
2 2 100.044 99.2734 999.31 -1 -1 -1
3 1 99.5212 98.5434 998.564 -1 -1 -1
ITEM: TIMESTEP
800
ITEM: NUMBER OF ATOMS
3
ITEM: BOX BOUNDS pp pp pp
0.0000000000000000e+00 1.0000000000000000e+02
0.0000000000000000e+00 1.0000000000000000e+02
0.0000000000000000e+00 1.0000000000000000e+03
ITEM: ATOMS id type x y z ix iy iz
1 1 0 0 0 0 0 0
2 2 99.6212 99.5281 998.784 -1 -1 -1
3 1 99.5604 99.0397 998.123 -1 -1 -1
ITEM: TIMESTEP
900
ITEM: NUMBER OF ATOMS
3
ITEM: BOX BOUNDS pp pp pp
0.0000000000000000e+00 1.0000000000000000e+02
0.0000000000000000e+00 1.0000000000000000e+02
0.0000000000000000e+00 1.0000000000000000e+03
ITEM: ATOMS id type x y z ix iy iz
1 1 0 0 0 0 0 0
2 2 99.6745 99.6361 999.183 -1 -1 -1
3 1 99.4536 99.1739 997.742 -1 -1 -1
ITEM: TIMESTEP
1000
ITEM: NUMBER OF ATOMS
3
ITEM: BOX BOUNDS pp pp pp
0.0000000000000000e+00 1.0000000000000000e+02
0.0000000000000000e+00 1.0000000000000000e+02
0.0000000000000000e+00 1.0000000000000000e+03
ITEM: ATOMS id type x y z ix iy iz
1 1 0 0 0 0 0 0
2 2 99.9157 99.7601 999.25 -1 -1 -1
3 1 99.811 99.3801 998.151 -1 -1 -1
ITEM: TIMESTEP
1100
ITEM: NUMBER OF ATOMS
3
ITEM: BOX BOUNDS pp pp pp
0.0000000000000000e+00 1.0000000000000000e+02
0.0000000000000000e+00 1.0000000000000000e+02
0.0000000000000000e+00 1.0000000000000000e+03
ITEM: ATOMS id type x y z ix iy iz
1 1 0 0 0 0 0 0
2 2 0.130042 99.5537 999.331 0 -1 -1
3 1 100.01 99.1104 999.002 -1 -1 -1
ITEM: TIMESTEP
1200
ITEM: NUMBER OF ATOMS
3
ITEM: BOX BOUNDS pp pp pp
0.0000000000000000e+00 1.0000000000000000e+02
0.0000000000000000e+00 1.0000000000000000e+02
0.0000000000000000e+00 1.0000000000000000e+03
ITEM: ATOMS id type x y z ix iy iz
1 1 0 0 0 0 0 0
2 2 0.0856719 99.0847 999.356 0 -1 -1
3 1 0.183028 98.1027 999.013 0 -1 -1
ITEM: TIMESTEP
1300
ITEM: NUMBER OF ATOMS
3
ITEM: BOX BOUNDS pp pp pp
0.0000000000000000e+00 1.0000000000000000e+02
0.0000000000000000e+00 1.0000000000000000e+02
0.0000000000000000e+00 1.0000000000000000e+03
ITEM: ATOMS id type x y z ix iy iz
1 1 0 0 0 0 0 0
2 2 0.255563 98.7392 999.657 0 -1 -1
3 1 0.588538 97.6027 999.028 0 -1 -1
ITEM: TIMESTEP
1400
ITEM: NUMBER OF ATOMS
3
ITEM: BOX BOUNDS pp pp pp
0.0000000000000000e+00 1.0000000000000000e+02
0.0000000000000000e+00 1.0000000000000000e+02
0.0000000000000000e+00 1.0000000000000000e+03
ITEM: ATOMS id type x y z ix iy iz
1 1 0 0 0 0 0 0
2 2 0.297931 98.871 999.727 0 -1 -1
3 1 0.755764 98.0794 999.427 0 -1 -1
ITEM: TIMESTEP
1500
ITEM: NUMBER OF ATOMS
3
ITEM: BOX BOUNDS pp pp pp
0.0000000000000000e+00 1.0000000000000000e+02
0.0000000000000000e+00 1.0000000000000000e+02
0.0000000000000000e+00 1.0000000000000000e+03
ITEM: ATOMS id type x y z ix iy iz
1 1 0 0 0 0 0 0
2 2 0.425761 99.0329 999.845 0 -1 -1
3 1 1.01308 98.1705 999.921 0 -1 -1
ITEM: TIMESTEP
1600
ITEM: NUMBER OF ATOMS
3
ITEM: BOX BOUNDS pp pp pp
0.0000000000000000e+00 1.0000000000000000e+02
0.0000000000000000e+00 1.0000000000000000e+02
0.0000000000000000e+00 1.0000000000000000e+03
ITEM: ATOMS id type x y z ix iy iz
1 1 0 0 0 0 0 0
2 2 0.804546 99.068 1000.11 0 -1 -1
3 1 1.34726 98.0444 999.909 0 -1 -1
ITEM: TIMESTEP
1700
ITEM: NUMBER OF ATOMS
3
ITEM: BOX BOUNDS pp pp pp
0.0000000000000000e+00 1.0000000000000000e+02
0.0000000000000000e+00 1.0000000000000000e+02
0.0000000000000000e+00 1.0000000000000000e+03
ITEM: ATOMS id type x y z ix iy iz
1 1 0 0 0 0 0 0
2 2 0.817809 99.0922 999.712 0 -1 -1
3 1 1.12457 98.0039 999.458 0 -1 -1
ITEM: TIMESTEP
1800
ITEM: NUMBER OF ATOMS
3
ITEM: BOX BOUNDS pp pp pp
0.0000000000000000e+00 1.0000000000000000e+02
0.0000000000000000e+00 1.0000000000000000e+02
0.0000000000000000e+00 1.0000000000000000e+03
ITEM: ATOMS id type x y z ix iy iz
1 1 0 0 0 0 0 0
2 2 -0.208739 99.0929 999.402 0 -1 -1
3 1 0.442054 98.3553 999.083 0 -1 -1
ITEM: TIMESTEP
1900
ITEM: NUMBER OF ATOMS
3
ITEM: BOX BOUNDS pp pp pp
0.0000000000000000e+00 1.0000000000000000e+02
0.0000000000000000e+00 1.0000000000000000e+02
0.0000000000000000e+00 1.0000000000000000e+03
ITEM: ATOMS id type x y z ix iy iz
1 1 0 0 0 0 0 0
2 2 99.8797 99.365 999.366 -1 -1 -1
3 1 -0.440492 98.5938 998.39 0 -1 -1
ITEM: TIMESTEP
2000
ITEM: NUMBER OF ATOMS
3
ITEM: BOX BOUNDS pp pp pp
0.0000000000000000e+00 1.0000000000000000e+02
0.0000000000000000e+00 1.0000000000000000e+02
0.0000000000000000e+00 1.0000000000000000e+03
ITEM: ATOMS id type x y z ix iy iz
1 1 0 0 0 0 0 0
2 2 99.7211 99.7817 999.187 -1 -1 -1
3 1 99.0632 98.9569 998.162 -1 -1 -1
ITEM: TIMESTEP
2100
ITEM: NUMBER OF ATOMS
3
ITEM: BOX BOUNDS pp pp pp
0.0000000000000000e+00 1.0000000000000000e+02
0.0000000000000000e+00 1.0000000000000000e+02
0.0000000000000000e+00 1.0000000000000000e+03
ITEM: ATOMS id type x y z ix iy iz
1 1 0 0 0 0 0 0
2 2 99.2838 99.6858 998.894 -1 -1 -1
3 1 99.0241 99.5329 998.053 -1 -1 -1
ITEM: TIMESTEP
2200
ITEM: NUMBER OF ATOMS
3
ITEM: BOX BOUNDS pp pp pp
0.0000000000000000e+00 1.0000000000000000e+02
0.0000000000000000e+00 1.0000000000000000e+02
0.0000000000000000e+00 1.0000000000000000e+03
ITEM: ATOMS id type x y z ix iy iz
1 1 0 0 0 0 0 0
2 2 99.266 99.7483 999.064 -1 -1 -1
3 1 98.9908 99.8587 998.238 -1 -1 -1
ITEM: TIMESTEP
2300
ITEM: NUMBER OF ATOMS
3
ITEM: BOX BOUNDS pp pp pp
0.0000000000000000e+00 1.0000000000000000e+02
0.0000000000000000e+00 1.0000000000000000e+02
0.0000000000000000e+00 1.0000000000000000e+03
ITEM: ATOMS id type x y z ix iy iz
1 1 0 0 0 0 0 0
2 2 99.776 0.110133 999.314 -1 0 -1
3 1 99.0243 100.064 998.198 -1 -1 -1
ITEM: TIMESTEP
2400
ITEM: NUMBER OF ATOMS
3
ITEM: BOX BOUNDS pp pp pp
0.0000000000000000e+00 1.0000000000000000e+02
0.0000000000000000e+00 1.0000000000000000e+02
0.0000000000000000e+00 1.0000000000000000e+03
ITEM: ATOMS id type x y z ix iy iz
1 1 0 0 0 0 0 0
2 2 99.4944 0.449264 999.038 -1 0 -1
3 1 98.7033 100.442 998.146 -1 -1 -1
ITEM: TIMESTEP
2500
ITEM: NUMBER OF ATOMS
3
ITEM: BOX BOUNDS pp pp pp
0.0000000000000000e+00 1.0000000000000000e+02
0.0000000000000000e+00 1.0000000000000000e+02
0.0000000000000000e+00 1.0000000000000000e+03
ITEM: ATOMS id type x y z ix iy iz
1 1 0 0 0 0 0 0
2 2 99.3596 0.176068 999.139 -1 0 -1
3 1 99.0481 100.587 998.464 -1 -1 -1
ITEM: TIMESTEP
2600
ITEM: NUMBER OF ATOMS
3
ITEM: BOX BOUNDS pp pp pp
0.0000000000000000e+00 1.0000000000000000e+02
0.0000000000000000e+00 1.0000000000000000e+02
0.0000000000000000e+00 1.0000000000000000e+03
ITEM: ATOMS id type x y z ix iy iz
1 1 0 0 0 0 0 0
2 2 99.5094 0.189168 999.319 -1 0 -1
3 1 98.8218 100.724 998.395 -1 -1 -1
ITEM: TIMESTEP
2700
ITEM: NUMBER OF ATOMS
3
ITEM: BOX BOUNDS pp pp pp
0.0000000000000000e+00 1.0000000000000000e+02
0.0000000000000000e+00 1.0000000000000000e+02
0.0000000000000000e+00 1.0000000000000000e+03
ITEM: ATOMS id type x y z ix iy iz
1 1 0 0 0 0 0 0
2 2 99.5288 0.333645 999.263 -1 0 -1
3 1 98.5483 100.421 998.522 -1 -1 -1
ITEM: TIMESTEP
2800
ITEM: NUMBER OF ATOMS
3
ITEM: BOX BOUNDS pp pp pp
0.0000000000000000e+00 1.0000000000000000e+02
0.0000000000000000e+00 1.0000000000000000e+02
0.0000000000000000e+00 1.0000000000000000e+03
ITEM: ATOMS id type x y z ix iy iz
1 1 0 0 0 0 0 0
2 2 99.1528 0.295111 999.576 -1 0 -1
3 1 98.2691 0.550417 999.242 -1 0 -1
ITEM: TIMESTEP
2900
ITEM: NUMBER OF ATOMS
3
ITEM: BOX BOUNDS pp pp pp
0.0000000000000000e+00 1.0000000000000000e+02
0.0000000000000000e+00 1.0000000000000000e+02
0.0000000000000000e+00 1.0000000000000000e+03
ITEM: ATOMS id type x y z ix iy iz
1 1 0 0 0 0 0 0
2 2 98.901 0.323741 999.838 -1 0 -1
3 1 98.0389 0.780722 999.457 -1 0 -1
ITEM: TIMESTEP
3000
ITEM: NUMBER OF ATOMS
3
ITEM: BOX BOUNDS pp pp pp
0.0000000000000000e+00 1.0000000000000000e+02
0.0000000000000000e+00 1.0000000000000000e+02
0.0000000000000000e+00 1.0000000000000000e+03
ITEM: ATOMS id type x y z ix iy iz
1 1 0 0 0 0 0 0
2 2 99.2551 0.690601 1000.13 -1 0 -1
3 1 98.3884 1.20479 999.808 -1 0 -1
ITEM: TIMESTEP
3100
ITEM: NUMBER OF ATOMS
3
ITEM: BOX BOUNDS pp pp pp
0.0000000000000000e+00 1.0000000000000000e+02
0.0000000000000000e+00 1.0000000000000000e+02
0.0000000000000000e+00 1.0000000000000000e+03
ITEM: ATOMS id type x y z ix iy iz
1 1 0 0 0 0 0 0
2 2 99.4909 0.913641 0.1078 -1 0 0
3 1 98.7965 1.69663 0.211293 -1 0 0
ITEM: TIMESTEP
3200
ITEM: NUMBER OF ATOMS
3
ITEM: BOX BOUNDS pp pp pp
0.0000000000000000e+00 1.0000000000000000e+02
0.0000000000000000e+00 1.0000000000000000e+02
0.0000000000000000e+00 1.0000000000000000e+03
ITEM: ATOMS id type x y z ix iy iz
1 1 0 0 0 0 0 0
2 2 99.7301 0.932393 0.129156 -1 0 0
3 1 99.2837 2.15854 0.31884 -1 0 0
ITEM: TIMESTEP
3300
ITEM: NUMBER OF ATOMS
3
ITEM: BOX BOUNDS pp pp pp
0.0000000000000000e+00 1.0000000000000000e+02
0.0000000000000000e+00 1.0000000000000000e+02
0.0000000000000000e+00 1.0000000000000000e+03
ITEM: ATOMS id type x y z ix iy iz
1 1 0 0 0 0 0 0
2 2 99.4677 1.10957 0.194271 -1 0 0
3 1 99.6112 2.03386 0.335077 -1 0 0
ITEM: TIMESTEP
3400
ITEM: NUMBER OF ATOMS
3
ITEM: BOX BOUNDS pp pp pp
0.0000000000000000e+00 1.0000000000000000e+02
0.0000000000000000e+00 1.0000000000000000e+02
0.0000000000000000e+00 1.0000000000000000e+03
ITEM: ATOMS id type x y z ix iy iz
1 1 0 0 0 0 0 0
2 2 0.17629 1.00822 999.924 0 0 -1
3 1 99.75 1.67143 999.536 -1 0 -1
ITEM: TIMESTEP
3500
ITEM: NUMBER OF ATOMS
3
ITEM: BOX BOUNDS pp pp pp
0.0000000000000000e+00 1.0000000000000000e+02
0.0000000000000000e+00 1.0000000000000000e+02
0.0000000000000000e+00 1.0000000000000000e+03
ITEM: ATOMS id type x y z ix iy iz
1 1 0 0 0 0 0 0
2 2 0.0220657 0.926574 999.342 0 0 -1
3 1 99.8745 2.10682 998.825 -1 0 -1
ITEM: TIMESTEP
3600
ITEM: NUMBER OF ATOMS
3
ITEM: BOX BOUNDS pp pp pp
0.0000000000000000e+00 1.0000000000000000e+02
0.0000000000000000e+00 1.0000000000000000e+02
0.0000000000000000e+00 1.0000000000000000e+03
ITEM: ATOMS id type x y z ix iy iz
1 1 0 0 0 0 0 0
2 2 -0.268232 0.871634 999.312 0 0 -1
3 1 99.996 2.0241 998.676 -1 0 -1
ITEM: TIMESTEP
3700
ITEM: NUMBER OF ATOMS
3
ITEM: BOX BOUNDS pp pp pp
0.0000000000000000e+00 1.0000000000000000e+02
0.0000000000000000e+00 1.0000000000000000e+02
0.0000000000000000e+00 1.0000000000000000e+03
ITEM: ATOMS id type x y z ix iy iz
1 1 0 0 0 0 0 0
2 2 -0.0545757 0.853379 999.532 0 0 -1
3 1 100.054 1.39878 999.074 -1 0 -1
ITEM: TIMESTEP
3800
ITEM: NUMBER OF ATOMS
3
ITEM: BOX BOUNDS pp pp pp
0.0000000000000000e+00 1.0000000000000000e+02
0.0000000000000000e+00 1.0000000000000000e+02
0.0000000000000000e+00 1.0000000000000000e+03
ITEM: ATOMS id type x y z ix iy iz
1 1 0 0 0 0 0 0
2 2 0.168303 0.83705 999.551 0 0 -1
3 1 100.059 1.45911 999.379 -1 0 -1
ITEM: TIMESTEP
3900
ITEM: NUMBER OF ATOMS
3
ITEM: BOX BOUNDS pp pp pp
0.0000000000000000e+00 1.0000000000000000e+02
0.0000000000000000e+00 1.0000000000000000e+02
0.0000000000000000e+00 1.0000000000000000e+03
ITEM: ATOMS id type x y z ix iy iz
1 1 0 0 0 0 0 0
2 2 0.0447535 0.936365 999.68 0 0 -1
3 1 0.114841 2.24522 999.231 0 0 -1
ITEM: TIMESTEP
4000
ITEM: NUMBER OF ATOMS
3
ITEM: BOX BOUNDS pp pp pp
0.0000000000000000e+00 1.0000000000000000e+02
0.0000000000000000e+00 1.0000000000000000e+02
0.0000000000000000e+00 1.0000000000000000e+03
ITEM: ATOMS id type x y z ix iy iz
1 1 0 0 0 0 0 0
2 2 0.23576 1.04612 999.544 0 0 -1
3 1 0.662538 2.14982 999.161 0 0 -1
ITEM: TIMESTEP
4100
ITEM: NUMBER OF ATOMS
3
ITEM: BOX BOUNDS pp pp pp
0.0000000000000000e+00 1.0000000000000000e+02
0.0000000000000000e+00 1.0000000000000000e+02
0.0000000000000000e+00 1.0000000000000000e+03
ITEM: ATOMS id type x y z ix iy iz
1 1 0 0 0 0 0 0
2 2 0.56191 0.836664 999.524 0 0 -1
3 1 0.971034 1.57023 999.068 0 0 -1
ITEM: TIMESTEP
4200
ITEM: NUMBER OF ATOMS
3
ITEM: BOX BOUNDS pp pp pp
0.0000000000000000e+00 1.0000000000000000e+02
0.0000000000000000e+00 1.0000000000000000e+02
0.0000000000000000e+00 1.0000000000000000e+03
ITEM: ATOMS id type x y z ix iy iz
1 1 0 0 0 0 0 0
2 2 0.608414 0.634314 999.599 0 0 -1
3 1 0.943763 1.37495 999.03 0 0 -1
ITEM: TIMESTEP
4300
ITEM: NUMBER OF ATOMS
3
ITEM: BOX BOUNDS pp pp pp
0.0000000000000000e+00 1.0000000000000000e+02
0.0000000000000000e+00 1.0000000000000000e+02
0.0000000000000000e+00 1.0000000000000000e+03
ITEM: ATOMS id type x y z ix iy iz
1 1 0 0 0 0 0 0
2 2 0.436206 0.652298 999.264 0 0 -1
3 1 0.867984 1.24975 998.559 0 0 -1
ITEM: TIMESTEP
4400
ITEM: NUMBER OF ATOMS
3
ITEM: BOX BOUNDS pp pp pp
0.0000000000000000e+00 1.0000000000000000e+02
0.0000000000000000e+00 1.0000000000000000e+02
0.0000000000000000e+00 1.0000000000000000e+03
ITEM: ATOMS id type x y z ix iy iz
1 1 0 0 0 0 0 0
2 2 0.584073 0.295541 999.085 0 0 -1
3 1 1.06399 0.607613 998.255 0 0 -1
ITEM: TIMESTEP
4500
ITEM: NUMBER OF ATOMS
3
ITEM: BOX BOUNDS pp pp pp
0.0000000000000000e+00 1.0000000000000000e+02
0.0000000000000000e+00 1.0000000000000000e+02
0.0000000000000000e+00 1.0000000000000000e+03
ITEM: ATOMS id type x y z ix iy iz
1 1 0 0 0 0 0 0
2 2 0.711908 -0.226589 999.319 0 0 -1
3 1 1.60038 0.14127 998.285 0 0 -1
ITEM: TIMESTEP
4600
ITEM: NUMBER OF ATOMS
3
ITEM: BOX BOUNDS pp pp pp
0.0000000000000000e+00 1.0000000000000000e+02
0.0000000000000000e+00 1.0000000000000000e+02
0.0000000000000000e+00 1.0000000000000000e+03
ITEM: ATOMS id type x y z ix iy iz
1 1 0 0 0 0 0 0
2 2 1.28962 0.179381 999.147 0 0 -1
3 1 2.09798 99.9275 998.666 0 -1 -1
ITEM: TIMESTEP
4700
ITEM: NUMBER OF ATOMS
3
ITEM: BOX BOUNDS pp pp pp
0.0000000000000000e+00 1.0000000000000000e+02
0.0000000000000000e+00 1.0000000000000000e+02
0.0000000000000000e+00 1.0000000000000000e+03
ITEM: ATOMS id type x y z ix iy iz
1 1 0 0 0 0 0 0
2 2 0.807433 -0.194017 999.393 0 0 -1
3 1 1.71225 99.9115 998.829 0 -1 -1
ITEM: TIMESTEP
4800
ITEM: NUMBER OF ATOMS
3
ITEM: BOX BOUNDS pp pp pp
0.0000000000000000e+00 1.0000000000000000e+02
0.0000000000000000e+00 1.0000000000000000e+02
0.0000000000000000e+00 1.0000000000000000e+03
ITEM: ATOMS id type x y z ix iy iz
1 1 0 0 0 0 0 0
2 2 0.380528 99.5485 999.647 0 -1 -1
3 1 0.904885 99.0188 999.058 0 -1 -1
ITEM: TIMESTEP
4900
ITEM: NUMBER OF ATOMS
3
ITEM: BOX BOUNDS pp pp pp
0.0000000000000000e+00 1.0000000000000000e+02
0.0000000000000000e+00 1.0000000000000000e+02
0.0000000000000000e+00 1.0000000000000000e+03
ITEM: ATOMS id type x y z ix iy iz
1 1 0 0 0 0 0 0
2 2 0.460884 99.2387 999.51 0 -1 -1
3 1 0.632812 98.2219 998.742 0 -1 -1
ITEM: TIMESTEP
5000
ITEM: NUMBER OF ATOMS
3
ITEM: BOX BOUNDS pp pp pp
0.0000000000000000e+00 1.0000000000000000e+02
0.0000000000000000e+00 1.0000000000000000e+02
0.0000000000000000e+00 1.0000000000000000e+03
ITEM: ATOMS id type x y z ix iy iz
1 1 0 0 0 0 0 0
2 2 0.335225 99.3249 999.383 0 -1 -1
3 1 0.760186 98.148 999.048 0 -1 -1
ITEM: TIMESTEP
5100
ITEM: NUMBER OF ATOMS
3
ITEM: BOX BOUNDS pp pp pp
0.0000000000000000e+00 1.0000000000000000e+02
0.0000000000000000e+00 1.0000000000000000e+02
0.0000000000000000e+00 1.0000000000000000e+03
ITEM: ATOMS id type x y z ix iy iz
1 1 0 0 0 0 0 0
2 2 0.508241 99.2399 999.248 0 -1 -1
3 1 1.09989 98.3733 998.695 0 -1 -1
ITEM: TIMESTEP
5200
ITEM: NUMBER OF ATOMS
3
ITEM: BOX BOUNDS pp pp pp
0.0000000000000000e+00 1.0000000000000000e+02
0.0000000000000000e+00 1.0000000000000000e+02
0.0000000000000000e+00 1.0000000000000000e+03
ITEM: ATOMS id type x y z ix iy iz
1 1 0 0 0 0 0 0
2 2 0.827794 99.1967 999.367 0 -1 -1
3 1 1.31746 99.0481 998.417 0 -1 -1
ITEM: TIMESTEP
5300
ITEM: NUMBER OF ATOMS
3
ITEM: BOX BOUNDS pp pp pp
0.0000000000000000e+00 1.0000000000000000e+02
0.0000000000000000e+00 1.0000000000000000e+02
0.0000000000000000e+00 1.0000000000000000e+03
ITEM: ATOMS id type x y z ix iy iz
1 1 0 0 0 0 0 0
2 2 0.635443 99.9411 999.167 0 -1 -1
3 1 1.4107 99.5885 998.685 0 -1 -1
ITEM: TIMESTEP
5400
ITEM: NUMBER OF ATOMS
3
ITEM: BOX BOUNDS pp pp pp
0.0000000000000000e+00 1.0000000000000000e+02
0.0000000000000000e+00 1.0000000000000000e+02
0.0000000000000000e+00 1.0000000000000000e+03
ITEM: ATOMS id type x y z ix iy iz
1 1 0 0 0 0 0 0
2 2 0.870925 99.7337 999.228 0 -1 -1
3 1 1.71834 99.5338 998.532 0 -1 -1
ITEM: TIMESTEP
5500
ITEM: NUMBER OF ATOMS
3
ITEM: BOX BOUNDS pp pp pp
0.0000000000000000e+00 1.0000000000000000e+02
0.0000000000000000e+00 1.0000000000000000e+02
0.0000000000000000e+00 1.0000000000000000e+03
ITEM: ATOMS id type x y z ix iy iz
1 1 0 0 0 0 0 0
2 2 1.00912 99.8199 999.394 0 -1 -1
3 1 1.8619 99.8831 998.726 0 -1 -1
ITEM: TIMESTEP
5600
ITEM: NUMBER OF ATOMS
3
ITEM: BOX BOUNDS pp pp pp
0.0000000000000000e+00 1.0000000000000000e+02
0.0000000000000000e+00 1.0000000000000000e+02
0.0000000000000000e+00 1.0000000000000000e+03
ITEM: ATOMS id type x y z ix iy iz
1 1 0 0 0 0 0 0
2 2 1.00349 100.099 999.675 0 -1 -1
3 1 1.75638 100.072 999.06 0 -1 -1
ITEM: TIMESTEP
5700
ITEM: NUMBER OF ATOMS
3
ITEM: BOX BOUNDS pp pp pp
0.0000000000000000e+00 1.0000000000000000e+02
0.0000000000000000e+00 1.0000000000000000e+02
0.0000000000000000e+00 1.0000000000000000e+03
ITEM: ATOMS id type x y z ix iy iz
1 1 0 0 0 0 0 0
2 2 0.69823 99.9888 999.717 0 -1 -1
3 1 1.56311 99.9541 999.409 0 -1 -1
ITEM: TIMESTEP
5800
ITEM: NUMBER OF ATOMS
3
ITEM: BOX BOUNDS pp pp pp
0.0000000000000000e+00 1.0000000000000000e+02
0.0000000000000000e+00 1.0000000000000000e+02
0.0000000000000000e+00 1.0000000000000000e+03
ITEM: ATOMS id type x y z ix iy iz
1 1 0 0 0 0 0 0
2 2 0.971838 99.5408 999.782 0 -1 -1
3 1 1.77835 99.1722 999.736 0 -1 -1
ITEM: TIMESTEP
5900
ITEM: NUMBER OF ATOMS
3
ITEM: BOX BOUNDS pp pp pp
0.0000000000000000e+00 1.0000000000000000e+02
0.0000000000000000e+00 1.0000000000000000e+02
0.0000000000000000e+00 1.0000000000000000e+03
ITEM: ATOMS id type x y z ix iy iz
1 1 0 0 0 0 0 0
2 2 0.839242 99.2056 999.813 0 -1 -1
3 1 1.78663 98.4303 999.526 0 -1 -1
ITEM: TIMESTEP
6000
ITEM: NUMBER OF ATOMS
3
ITEM: BOX BOUNDS pp pp pp
0.0000000000000000e+00 1.0000000000000000e+02
0.0000000000000000e+00 1.0000000000000000e+02
0.0000000000000000e+00 1.0000000000000000e+03
ITEM: ATOMS id type x y z ix iy iz
1 1 0 0 0 0 0 0
2 2 0.20091 99.396 999.815 0 -1 -1
3 1 0.770827 98.5035 999.558 0 -1 -1
ITEM: TIMESTEP
6100
ITEM: NUMBER OF ATOMS
3
ITEM: BOX BOUNDS pp pp pp
0.0000000000000000e+00 1.0000000000000000e+02
0.0000000000000000e+00 1.0000000000000000e+02
0.0000000000000000e+00 1.0000000000000000e+03
ITEM: ATOMS id type x y z ix iy iz
1 1 0 0 0 0 0 0
2 2 0.233274 99.2645 999.74 0 -1 -1
3 1 0.1936 98.2376 999.62 0 -1 -1
ITEM: TIMESTEP
6200
ITEM: NUMBER OF ATOMS
3
ITEM: BOX BOUNDS pp pp pp
0.0000000000000000e+00 1.0000000000000000e+02
0.0000000000000000e+00 1.0000000000000000e+02
0.0000000000000000e+00 1.0000000000000000e+03
ITEM: ATOMS id type x y z ix iy iz
1 1 0 0 0 0 0 0
3 1 0.0113928 97.8354 999.52 0 -1 -1
2 2 100.074 98.9344 999.834 -1 -1 -1
ITEM: TIMESTEP
6300
ITEM: NUMBER OF ATOMS
3
ITEM: BOX BOUNDS pp pp pp
0.0000000000000000e+00 1.0000000000000000e+02
0.0000000000000000e+00 1.0000000000000000e+02
0.0000000000000000e+00 1.0000000000000000e+03
ITEM: ATOMS id type x y z ix iy iz
1 1 0 0 0 0 0 0
3 1 -0.0953543 98.0688 999.628 0 -1 -1
2 2 99.7648 98.8591 999.918 -1 -1 -1
ITEM: TIMESTEP
6400
ITEM: NUMBER OF ATOMS
3
ITEM: BOX BOUNDS pp pp pp
0.0000000000000000e+00 1.0000000000000000e+02
0.0000000000000000e+00 1.0000000000000000e+02
0.0000000000000000e+00 1.0000000000000000e+03
ITEM: ATOMS id type x y z ix iy iz
1 1 0 0 0 0 0 0
3 1 99.3182 98.3698 999.878 -1 -1 -1
2 2 99.6085 99.1207 999.897 -1 -1 -1
ITEM: TIMESTEP
6500
ITEM: NUMBER OF ATOMS
3
ITEM: BOX BOUNDS pp pp pp
0.0000000000000000e+00 1.0000000000000000e+02
0.0000000000000000e+00 1.0000000000000000e+02
0.0000000000000000e+00 1.0000000000000000e+03
ITEM: ATOMS id type x y z ix iy iz
1 1 0 0 0 0 0 0
3 1 99.2871 97.8905 1000.12 -1 -1 -1
2 2 99.7248 99.2518 999.938 -1 -1 -1
ITEM: TIMESTEP
6600
ITEM: NUMBER OF ATOMS
3
ITEM: BOX BOUNDS pp pp pp
0.0000000000000000e+00 1.0000000000000000e+02
0.0000000000000000e+00 1.0000000000000000e+02
0.0000000000000000e+00 1.0000000000000000e+03
ITEM: ATOMS id type x y z ix iy iz
1 1 0 0 0 0 0 0
3 1 99.8165 97.9286 1000.45 -1 -1 -1
2 2 99.976 98.8362 1000.17 -1 -1 -1
ITEM: TIMESTEP
6700
ITEM: NUMBER OF ATOMS
3
ITEM: BOX BOUNDS pp pp pp
0.0000000000000000e+00 1.0000000000000000e+02
0.0000000000000000e+00 1.0000000000000000e+02
0.0000000000000000e+00 1.0000000000000000e+03
ITEM: ATOMS id type x y z ix iy iz
1 1 0 0 0 0 0 0
3 1 100.389 98.1196 0.845588 -1 -1 0
2 2 100.278 98.8879 0.498462 -1 -1 0
ITEM: TIMESTEP
6800
ITEM: NUMBER OF ATOMS
3
ITEM: BOX BOUNDS pp pp pp
0.0000000000000000e+00 1.0000000000000000e+02
0.0000000000000000e+00 1.0000000000000000e+02
0.0000000000000000e+00 1.0000000000000000e+03
ITEM: ATOMS id type x y z ix iy iz
1 1 0 0 0 0 0 0
3 1 1.13423 98.423 1.13683 0 -1 0
2 2 0.469997 99.4451 0.50079 0 -1 0
ITEM: TIMESTEP
6900
ITEM: NUMBER OF ATOMS
3
ITEM: BOX BOUNDS pp pp pp
0.0000000000000000e+00 1.0000000000000000e+02
0.0000000000000000e+00 1.0000000000000000e+02
0.0000000000000000e+00 1.0000000000000000e+03
ITEM: ATOMS id type x y z ix iy iz
1 1 0 0 0 0 0 0
3 1 1.88961 98.648 1.23382 0 -1 0
2 2 0.792638 99.522 0.648008 0 -1 0
ITEM: TIMESTEP
7000
ITEM: NUMBER OF ATOMS
3
ITEM: BOX BOUNDS pp pp pp
0.0000000000000000e+00 1.0000000000000000e+02
0.0000000000000000e+00 1.0000000000000000e+02
0.0000000000000000e+00 1.0000000000000000e+03
ITEM: ATOMS id type x y z ix iy iz
1 1 0 0 0 0 0 0
3 1 1.71458 99.7001 0.927392 0 -1 0
2 2 0.997504 99.5194 0.51861 0 -1 0
ITEM: TIMESTEP
7100
ITEM: NUMBER OF ATOMS
3
ITEM: BOX BOUNDS pp pp pp
0.0000000000000000e+00 1.0000000000000000e+02
0.0000000000000000e+00 1.0000000000000000e+02
0.0000000000000000e+00 1.0000000000000000e+03
ITEM: ATOMS id type x y z ix iy iz
1 1 0 0 0 0 0 0
3 1 1.8991 0.860899 0.715036 0 0 0
2 2 1.07415 0.457308 0.40856 0 0 0
ITEM: TIMESTEP
7200
ITEM: NUMBER OF ATOMS
3
ITEM: BOX BOUNDS pp pp pp
0.0000000000000000e+00 1.0000000000000000e+02
0.0000000000000000e+00 1.0000000000000000e+02
0.0000000000000000e+00 1.0000000000000000e+03
ITEM: ATOMS id type x y z ix iy iz
1 1 0 0 0 0 0 0
3 1 1.98386 1.27355 0.079819 0 0 0
2 2 0.833365 0.775959 -0.186449 0 0 0
ITEM: TIMESTEP
7300
ITEM: NUMBER OF ATOMS
3
ITEM: BOX BOUNDS pp pp pp
0.0000000000000000e+00 1.0000000000000000e+02
0.0000000000000000e+00 1.0000000000000000e+02
0.0000000000000000e+00 1.0000000000000000e+03
ITEM: ATOMS id type x y z ix iy iz
1 1 0 0 0 0 0 0
3 1 1.46699 1.31625 998.926 0 0 -1
2 2 0.712447 0.82693 999.57 0 0 -1
ITEM: TIMESTEP
7400
ITEM: NUMBER OF ATOMS
3
ITEM: BOX BOUNDS pp pp pp
0.0000000000000000e+00 1.0000000000000000e+02
0.0000000000000000e+00 1.0000000000000000e+02
0.0000000000000000e+00 1.0000000000000000e+03
ITEM: ATOMS id type x y z ix iy iz
1 1 0 0 0 0 0 0
3 1 1.04712 1.28479 998.379 0 0 -1
2 2 0.736196 0.656205 999.354 0 0 -1
ITEM: TIMESTEP
7500
ITEM: NUMBER OF ATOMS
3
ITEM: BOX BOUNDS pp pp pp
0.0000000000000000e+00 1.0000000000000000e+02
0.0000000000000000e+00 1.0000000000000000e+02
0.0000000000000000e+00 1.0000000000000000e+03
ITEM: ATOMS id type x y z ix iy iz
1 1 0 0 0 0 0 0
3 1 0.705545 1.26822 998.205 0 0 -1
2 2 0.275598 0.532478 998.999 0 0 -1
ITEM: TIMESTEP
7600
ITEM: NUMBER OF ATOMS
3
ITEM: BOX BOUNDS pp pp pp
0.0000000000000000e+00 1.0000000000000000e+02
0.0000000000000000e+00 1.0000000000000000e+02
0.0000000000000000e+00 1.0000000000000000e+03
ITEM: ATOMS id type x y z ix iy iz
1 1 0 0 0 0 0 0
3 1 0.279806 1.43412 997.919 0 0 -1
2 2 0.0666186 0.596847 998.963 0 0 -1
ITEM: TIMESTEP
7700
ITEM: NUMBER OF ATOMS
3
ITEM: BOX BOUNDS pp pp pp
0.0000000000000000e+00 1.0000000000000000e+02
0.0000000000000000e+00 1.0000000000000000e+02
0.0000000000000000e+00 1.0000000000000000e+03
ITEM: ATOMS id type x y z ix iy iz
1 1 0 0 0 0 0 0
3 1 -0.401641 1.13022 998.53 0 0 -1
2 2 99.9208 0.500483 999.234 -1 0 -1
ITEM: TIMESTEP
7800
ITEM: NUMBER OF ATOMS
3
ITEM: BOX BOUNDS pp pp pp
0.0000000000000000e+00 1.0000000000000000e+02
0.0000000000000000e+00 1.0000000000000000e+02
0.0000000000000000e+00 1.0000000000000000e+03
ITEM: ATOMS id type x y z ix iy iz
1 1 0 0 0 0 0 0
3 1 99.4272 0.910089 998.856 -1 0 -1
2 2 99.6918 0.631531 999.294 -1 0 -1
ITEM: TIMESTEP
7900
ITEM: NUMBER OF ATOMS
3
ITEM: BOX BOUNDS pp pp pp
0.0000000000000000e+00 1.0000000000000000e+02
0.0000000000000000e+00 1.0000000000000000e+02
0.0000000000000000e+00 1.0000000000000000e+03
ITEM: ATOMS id type x y z ix iy iz
1 1 0 0 0 0 0 0
3 1 99.2688 1.53351 998.597 -1 0 -1
2 2 99.5505 0.755426 999.37 -1 0 -1
ITEM: TIMESTEP
8000
ITEM: NUMBER OF ATOMS
3
ITEM: BOX BOUNDS pp pp pp
0.0000000000000000e+00 1.0000000000000000e+02
0.0000000000000000e+00 1.0000000000000000e+02
0.0000000000000000e+00 1.0000000000000000e+03
ITEM: ATOMS id type x y z ix iy iz
1 1 0 0 0 0 0 0
3 1 99.1037 1.79307 998.886 -1 0 -1
2 2 99.7167 0.627659 999.362 -1 0 -1
ITEM: TIMESTEP
8100
ITEM: NUMBER OF ATOMS
3
ITEM: BOX BOUNDS pp pp pp
0.0000000000000000e+00 1.0000000000000000e+02
0.0000000000000000e+00 1.0000000000000000e+02
0.0000000000000000e+00 1.0000000000000000e+03
ITEM: ATOMS id type x y z ix iy iz
1 1 0 0 0 0 0 0
3 1 98.6807 1.52808 999.712 -1 0 -1
2 2 99.3004 0.931756 999.668 -1 0 -1
ITEM: TIMESTEP
8200
ITEM: NUMBER OF ATOMS
3
ITEM: BOX BOUNDS pp pp pp
0.0000000000000000e+00 1.0000000000000000e+02
0.0000000000000000e+00 1.0000000000000000e+02
0.0000000000000000e+00 1.0000000000000000e+03
ITEM: ATOMS id type x y z ix iy iz
1 1 0 0 0 0 0 0
3 1 98.5913 1.70521 1000.24 -1 0 -1
2 2 99.1986 1.20021 0.0338815 -1 0 0
ITEM: TIMESTEP
8300
ITEM: NUMBER OF ATOMS
3
ITEM: BOX BOUNDS pp pp pp
0.0000000000000000e+00 1.0000000000000000e+02
0.0000000000000000e+00 1.0000000000000000e+02
0.0000000000000000e+00 1.0000000000000000e+03
ITEM: ATOMS id type x y z ix iy iz
1 1 0 0 0 0 0 0
3 1 99.0802 1.81222 1000.22 -1 0 -1
2 2 99.459 0.772919 0.369625 -1 0 0
ITEM: TIMESTEP
8400
ITEM: NUMBER OF ATOMS
3
ITEM: BOX BOUNDS pp pp pp
0.0000000000000000e+00 1.0000000000000000e+02
0.0000000000000000e+00 1.0000000000000000e+02
0.0000000000000000e+00 1.0000000000000000e+03
ITEM: ATOMS id type x y z ix iy iz
1 1 0 0 0 0 0 0
3 1 99.3107 1.78993 1000.33 -1 0 -1
2 2 99.6769 0.867426 0.0242688 -1 0 0
ITEM: TIMESTEP
8500
ITEM: NUMBER OF ATOMS
3
ITEM: BOX BOUNDS pp pp pp
0.0000000000000000e+00 1.0000000000000000e+02
0.0000000000000000e+00 1.0000000000000000e+02
0.0000000000000000e+00 1.0000000000000000e+03
ITEM: ATOMS id type x y z ix iy iz
1 1 0 0 0 0 0 0
3 1 99.3916 1.896 0.389396 -1 0 0
2 2 99.7971 1.11408 -0.0696935 -1 0 0
ITEM: TIMESTEP
8600
ITEM: NUMBER OF ATOMS
3
ITEM: BOX BOUNDS pp pp pp
0.0000000000000000e+00 1.0000000000000000e+02
0.0000000000000000e+00 1.0000000000000000e+02
0.0000000000000000e+00 1.0000000000000000e+03
ITEM: ATOMS id type x y z ix iy iz
1 1 0 0 0 0 0 0
3 1 99.5026 2.19194 0.32543 -1 0 0
2 2 99.5358 1.046 0.524344 -1 0 0
ITEM: TIMESTEP
8700
ITEM: NUMBER OF ATOMS
3
ITEM: BOX BOUNDS pp pp pp
0.0000000000000000e+00 1.0000000000000000e+02
0.0000000000000000e+00 1.0000000000000000e+02
0.0000000000000000e+00 1.0000000000000000e+03
ITEM: ATOMS id type x y z ix iy iz
1 1 0 0 0 0 0 0
3 1 99.7986 1.9971 0.594072 -1 0 0
2 2 99.9012 0.90074 0.139202 -1 0 0
ITEM: TIMESTEP
8800
ITEM: NUMBER OF ATOMS
3
ITEM: BOX BOUNDS pp pp pp
0.0000000000000000e+00 1.0000000000000000e+02
0.0000000000000000e+00 1.0000000000000000e+02
0.0000000000000000e+00 1.0000000000000000e+03
ITEM: ATOMS id type x y z ix iy iz
1 1 0 0 0 0 0 0
3 1 99.8233 1.89007 0.865313 -1 0 0
2 2 99.9552 1.19683 0.333427 -1 0 0
ITEM: TIMESTEP
8900
ITEM: NUMBER OF ATOMS
3
ITEM: BOX BOUNDS pp pp pp
0.0000000000000000e+00 1.0000000000000000e+02
0.0000000000000000e+00 1.0000000000000000e+02
0.0000000000000000e+00 1.0000000000000000e+03
ITEM: ATOMS id type x y z ix iy iz
1 1 0 0 0 0 0 0
3 1 99.0155 1.9567 0.552158 -1 0 0
2 2 99.6547 0.912299 0.311429 -1 0 0
ITEM: TIMESTEP
9000
ITEM: NUMBER OF ATOMS
3
ITEM: BOX BOUNDS pp pp pp
0.0000000000000000e+00 1.0000000000000000e+02
0.0000000000000000e+00 1.0000000000000000e+02