ITEM: TIMESTEP
0
ITEM: NUMBER OF ENTRIES
1
ITEM: BOX BOUNDS pp pp pp
0.0000000000000000e+00 1.0000000000000000e+02
0.0000000000000000e+00 1.0000000000000000e+02
0.0000000000000000e+00 1.0000000000000000e+03
ITEM: ENTRIES c_myAngle
180 
ITEM: TIMESTEP
100
ITEM: NUMBER OF ENTRIES
1
ITEM: BOX BOUNDS pp pp pp
0.0000000000000000e+00 1.0000000000000000e+02
0.0000000000000000e+00 1.0000000000000000e+02
0.0000000000000000e+00 1.0000000000000000e+03
ITEM: ENTRIES c_myAngle
164.952 
ITEM: TIMESTEP
200
ITEM: NUMBER OF ENTRIES
1
ITEM: BOX BOUNDS pp pp pp
0.0000000000000000e+00 1.0000000000000000e+02
0.0000000000000000e+00 1.0000000000000000e+02
0.0000000000000000e+00 1.0000000000000000e+03
ITEM: ENTRIES c_myAngle
170.896 
ITEM: TIMESTEP
300
ITEM: NUMBER OF ENTRIES
1
ITEM: BOX BOUNDS pp pp pp
0.0000000000000000e+00 1.0000000000000000e+02
0.0000000000000000e+00 1.0000000000000000e+02
0.0000000000000000e+00 1.0000000000000000e+03
ITEM: ENTRIES c_myAngle
158.523 
ITEM: TIMESTEP
400
ITEM: NUMBER OF ENTRIES
1
ITEM: BOX BOUNDS pp pp pp
0.0000000000000000e+00 1.0000000000000000e+02
0.0000000000000000e+00 1.0000000000000000e+02
0.0000000000000000e+00 1.0000000000000000e+03
ITEM: ENTRIES c_myAngle
175.3 
ITEM: TIMESTEP
500
ITEM: NUMBER OF ENTRIES
1
ITEM: BOX BOUNDS pp pp pp
0.0000000000000000e+00 1.0000000000000000e+02
0.0000000000000000e+00 1.0000000000000000e+02
0.0000000000000000e+00 1.0000000000000000e+03
ITEM: ENTRIES c_myAngle
168.266 
ITEM: TIMESTEP
600
ITEM: NUMBER OF ENTRIES
1
ITEM: BOX BOUNDS pp pp pp
0.0000000000000000e+00 1.0000000000000000e+02
0.0000000000000000e+00 1.0000000000000000e+02
0.0000000000000000e+00 1.0000000000000000e+03
ITEM: ENTRIES c_myAngle
154.746 
ITEM: TIMESTEP
700
ITEM: NUMBER OF ENTRIES
1
ITEM: BOX BOUNDS pp pp pp
0.0000000000000000e+00 1.0000000000000000e+02
0.0000000000000000e+00 1.0000000000000000e+02
0.0000000000000000e+00 1.0000000000000000e+03
ITEM: ENTRIES c_myAngle
154.036 
ITEM: TIMESTEP
800
ITEM: NUMBER OF ENTRIES
1
ITEM: BOX BOUNDS pp pp pp
0.0000000000000000e+00 1.0000000000000000e+02
0.0000000000000000e+00 1.0000000000000000e+02
0.0000000000000000e+00 1.0000000000000000e+03
ITEM: ENTRIES c_myAngle
175.461 
ITEM: TIMESTEP
900
ITEM: NUMBER OF ENTRIES
1
ITEM: BOX BOUNDS pp pp pp
0.0000000000000000e+00 1.0000000000000000e+02
0.0000000000000000e+00 1.0000000000000000e+02
0.0000000000000000e+00 1.0000000000000000e+03
ITEM: ENTRIES c_myAngle
163.516 
ITEM: TIMESTEP
1000
ITEM: NUMBER OF ENTRIES
1
ITEM: BOX BOUNDS pp pp pp
0.0000000000000000e+00 1.0000000000000000e+02
0.0000000000000000e+00 1.0000000000000000e+02
0.0000000000000000e+00 1.0000000000000000e+03
ITEM: ENTRIES c_myAngle
175.581 
ITEM: TIMESTEP
1100
ITEM: NUMBER OF ENTRIES
1
ITEM: BOX BOUNDS pp pp pp
0.0000000000000000e+00 1.0000000000000000e+02
0.0000000000000000e+00 1.0000000000000000e+02
0.0000000000000000e+00 1.0000000000000000e+03
ITEM: ENTRIES c_myAngle
145.792 
ITEM: TIMESTEP
1200
ITEM: NUMBER OF ENTRIES
1
ITEM: BOX BOUNDS pp pp pp
0.0000000000000000e+00 1.0000000000000000e+02
0.0000000000000000e+00 1.0000000000000000e+02
0.0000000000000000e+00 1.0000000000000000e+03
ITEM: ENTRIES c_myAngle
173.884 
ITEM: TIMESTEP
1300
ITEM: NUMBER OF ENTRIES
1
ITEM: BOX BOUNDS pp pp pp
0.0000000000000000e+00 1.0000000000000000e+02
0.0000000000000000e+00 1.0000000000000000e+02
0.0000000000000000e+00 1.0000000000000000e+03
ITEM: ENTRIES c_myAngle
149.832 
ITEM: TIMESTEP
1400
ITEM: NUMBER OF ENTRIES
1
ITEM: BOX BOUNDS pp pp pp
0.0000000000000000e+00 1.0000000000000000e+02
0.0000000000000000e+00 1.0000000000000000e+02
0.0000000000000000e+00 1.0000000000000000e+03
ITEM: ENTRIES c_myAngle
138.341 
ITEM: TIMESTEP
1500
ITEM: NUMBER OF ENTRIES
1
ITEM: BOX BOUNDS pp pp pp
0.0000000000000000e+00 1.0000000000000000e+02
0.0000000000000000e+00 1.0000000000000000e+02
0.0000000000000000e+00 1.0000000000000000e+03
ITEM: ENTRIES c_myAngle
155.661 
ITEM: TIMESTEP
1600
ITEM: NUMBER OF ENTRIES
1
ITEM: BOX BOUNDS pp pp pp
0.0000000000000000e+00 1.0000000000000000e+02
0.0000000000000000e+00 1.0000000000000000e+02
0.0000000000000000e+00 1.0000000000000000e+03
ITEM: ENTRIES c_myAngle
158.417 
ITEM: TIMESTEP
1700
ITEM: NUMBER OF ENTRIES
1
ITEM: BOX BOUNDS pp pp pp
0.0000000000000000e+00 1.0000000000000000e+02
0.0000000000000000e+00 1.0000000000000000e+02
0.0000000000000000e+00 1.0000000000000000e+03
ITEM: ENTRIES c_myAngle
135.249 
ITEM: TIMESTEP
1800
ITEM: NUMBER OF ENTRIES
1
ITEM: BOX BOUNDS pp pp pp
0.0000000000000000e+00 1.0000000000000000e+02
0.0000000000000000e+00 1.0000000000000000e+02
0.0000000000000000e+00 1.0000000000000000e+03
ITEM: ENTRIES c_myAngle
128.861 
ITEM: TIMESTEP
1900
ITEM: NUMBER OF ENTRIES
1
ITEM: BOX BOUNDS pp pp pp
0.0000000000000000e+00 1.0000000000000000e+02
0.0000000000000000e+00 1.0000000000000000e+02
0.0000000000000000e+00 1.0000000000000000e+03
ITEM: ENTRIES c_myAngle
163.446 
ITEM: TIMESTEP
2000
ITEM: NUMBER OF ENTRIES
1
ITEM: BOX BOUNDS pp pp pp
0.0000000000000000e+00 1.0000000000000000e+02
0.0000000000000000e+00 1.0000000000000000e+02
0.0000000000000000e+00 1.0000000000000000e+03
ITEM: ENTRIES c_myAngle
141.936 
ITEM: TIMESTEP
2100
ITEM: NUMBER OF ENTRIES
1
ITEM: BOX BOUNDS pp pp pp
0.0000000000000000e+00 1.0000000000000000e+02
0.0000000000000000e+00 1.0000000000000000e+02
0.0000000000000000e+00 1.0000000000000000e+03
ITEM: ENTRIES c_myAngle
172.485 
ITEM: TIMESTEP
2200
ITEM: NUMBER OF ENTRIES
1
ITEM: BOX BOUNDS pp pp pp
0.0000000000000000e+00 1.0000000000000000e+02
0.0000000000000000e+00 1.0000000000000000e+02
0.0000000000000000e+00 1.0000000000000000e+03
ITEM: ENTRIES c_myAngle
143.776 
ITEM: TIMESTEP
2300
ITEM: NUMBER OF ENTRIES
1
ITEM: BOX BOUNDS pp pp pp
0.0000000000000000e+00 1.0000000000000000e+02
0.0000000000000000e+00 1.0000000000000000e+02
0.0000000000000000e+00 1.0000000000000000e+03
ITEM: ENTRIES c_myAngle
144.574 
ITEM: TIMESTEP
2400
ITEM: NUMBER OF ENTRIES
1
ITEM: BOX BOUNDS pp pp pp
0.0000000000000000e+00 1.0000000000000000e+02
0.0000000000000000e+00 1.0000000000000000e+02
0.0000000000000000e+00 1.0000000000000000e+03
ITEM: ENTRIES c_myAngle
172.542 
ITEM: TIMESTEP
2500
ITEM: NUMBER OF ENTRIES
1
ITEM: BOX BOUNDS pp pp pp
0.0000000000000000e+00 1.0000000000000000e+02
0.0000000000000000e+00 1.0000000000000000e+02
0.0000000000000000e+00 1.0000000000000000e+03
ITEM: ENTRIES c_myAngle
169.769 
ITEM: TIMESTEP
2600
ITEM: NUMBER OF ENTRIES
1
ITEM: BOX BOUNDS pp pp pp
0.0000000000000000e+00 1.0000000000000000e+02
0.0000000000000000e+00 1.0000000000000000e+02
0.0000000000000000e+00 1.0000000000000000e+03
ITEM: ENTRIES c_myAngle
168.262 
ITEM: TIMESTEP
2700
ITEM: NUMBER OF ENTRIES
1
ITEM: BOX BOUNDS pp pp pp
0.0000000000000000e+00 1.0000000000000000e+02
0.0000000000000000e+00 1.0000000000000000e+02
0.0000000000000000e+00 1.0000000000000000e+03
ITEM: ENTRIES c_myAngle
158.846 
ITEM: TIMESTEP
2800
ITEM: NUMBER OF ENTRIES
1
ITEM: BOX BOUNDS pp pp pp
0.0000000000000000e+00 1.0000000000000000e+02
0.0000000000000000e+00 1.0000000000000000e+02
0.0000000000000000e+00 1.0000000000000000e+03
ITEM: ENTRIES c_myAngle
169.372 
ITEM: TIMESTEP
2900
ITEM: NUMBER OF ENTRIES
1
ITEM: BOX BOUNDS pp pp pp
0.0000000000000000e+00 1.0000000000000000e+02
0.0000000000000000e+00 1.0000000000000000e+02
0.0000000000000000e+00 1.0000000000000000e+03
ITEM: ENTRIES c_myAngle
168.558 
ITEM: TIMESTEP
3000
ITEM: NUMBER OF ENTRIES
1
ITEM: BOX BOUNDS pp pp pp
0.0000000000000000e+00 1.0000000000000000e+02
0.0000000000000000e+00 1.0000000000000000e+02
0.0000000000000000e+00 1.0000000000000000e+03
ITEM: ENTRIES c_myAngle
158.325 
ITEM: TIMESTEP
3100
ITEM: NUMBER OF ENTRIES
1
ITEM: BOX BOUNDS pp pp pp
0.0000000000000000e+00 1.0000000000000000e+02
0.0000000000000000e+00 1.0000000000000000e+02
0.0000000000000000e+00 1.0000000000000000e+03
ITEM: ENTRIES c_myAngle
158.21 
ITEM: TIMESTEP
3200
ITEM: NUMBER OF ENTRIES
1
ITEM: BOX BOUNDS pp pp pp
0.0000000000000000e+00 1.0000000000000000e+02
0.0000000000000000e+00 1.0000000000000000e+02
0.0000000000000000e+00 1.0000000000000000e+03
ITEM: ENTRIES c_myAngle
165.372 
ITEM: TIMESTEP
3300
ITEM: NUMBER OF ENTRIES
1
ITEM: BOX BOUNDS pp pp pp
0.0000000000000000e+00 1.0000000000000000e+02
0.0000000000000000e+00 1.0000000000000000e+02
0.0000000000000000e+00 1.0000000000000000e+03
ITEM: ENTRIES c_myAngle
145.102 
ITEM: TIMESTEP
3400
ITEM: NUMBER OF ENTRIES
1
ITEM: BOX BOUNDS pp pp pp
0.0000000000000000e+00 1.0000000000000000e+02
0.0000000000000000e+00 1.0000000000000000e+02
0.0000000000000000e+00 1.0000000000000000e+03
ITEM: ENTRIES c_myAngle
165.1 
ITEM: TIMESTEP
3500
ITEM: NUMBER OF ENTRIES
1
ITEM: BOX BOUNDS pp pp pp
0.0000000000000000e+00 1.0000000000000000e+02
0.0000000000000000e+00 1.0000000000000000e+02
0.0000000000000000e+00 1.0000000000000000e+03
ITEM: ENTRIES c_myAngle
164.872 
ITEM: TIMESTEP
3600
ITEM: NUMBER OF ENTRIES
1
ITEM: BOX BOUNDS pp pp pp
0.0000000000000000e+00 1.0000000000000000e+02
0.0000000000000000e+00 1.0000000000000000e+02
0.0000000000000000e+00 1.0000000000000000e+03
ITEM: ENTRIES c_myAngle
162.105 
ITEM: TIMESTEP
3700
ITEM: NUMBER OF ENTRIES
1
ITEM: BOX BOUNDS pp pp pp
0.0000000000000000e+00 1.0000000000000000e+02
0.0000000000000000e+00 1.0000000000000000e+02
0.0000000000000000e+00 1.0000000000000000e+03
ITEM: ENTRIES c_myAngle
166.323 
ITEM: TIMESTEP
3800
ITEM: NUMBER OF ENTRIES
1
ITEM: BOX BOUNDS pp pp pp
0.0000000000000000e+00 1.0000000000000000e+02
0.0000000000000000e+00 1.0000000000000000e+02
0.0000000000000000e+00 1.0000000000000000e+03
ITEM: ENTRIES c_myAngle
157.724 
ITEM: TIMESTEP
3900
ITEM: NUMBER OF ENTRIES
1
ITEM: BOX BOUNDS pp pp pp
0.0000000000000000e+00 1.0000000000000000e+02
0.0000000000000000e+00 1.0000000000000000e+02
0.0000000000000000e+00 1.0000000000000000e+03
ITEM: ENTRIES c_myAngle
156.711 
ITEM: TIMESTEP
4000
ITEM: NUMBER OF ENTRIES
1
ITEM: BOX BOUNDS pp pp pp
0.0000000000000000e+00 1.0000000000000000e+02
0.0000000000000000e+00 1.0000000000000000e+02
0.0000000000000000e+00 1.0000000000000000e+03
ITEM: ENTRIES c_myAngle
169.995 
ITEM: TIMESTEP
4100
ITEM: NUMBER OF ENTRIES
1
ITEM: BOX BOUNDS pp pp pp
0.0000000000000000e+00 1.0000000000000000e+02
0.0000000000000000e+00 1.0000000000000000e+02
0.0000000000000000e+00 1.0000000000000000e+03
ITEM: ENTRIES c_myAngle
170.191 
ITEM: TIMESTEP
4200
ITEM: NUMBER OF ENTRIES
1
ITEM: BOX BOUNDS pp pp pp
0.0000000000000000e+00 1.0000000000000000e+02
0.0000000000000000e+00 1.0000000000000000e+02
0.0000000000000000e+00 1.0000000000000000e+03
ITEM: ENTRIES c_myAngle
150.539 
ITEM: TIMESTEP
4300
ITEM: NUMBER OF ENTRIES
1
ITEM: BOX BOUNDS pp pp pp
0.0000000000000000e+00 1.0000000000000000e+02
0.0000000000000000e+00 1.0000000000000000e+02
0.0000000000000000e+00 1.0000000000000000e+03
ITEM: ENTRIES c_myAngle
159.337 
ITEM: TIMESTEP
4400
ITEM: NUMBER OF ENTRIES
1
ITEM: BOX BOUNDS pp pp pp
0.0000000000000000e+00 1.0000000000000000e+02
0.0000000000000000e+00 1.0000000000000000e+02
0.0000000000000000e+00 1.0000000000000000e+03
ITEM: ENTRIES c_myAngle
153.075 
ITEM: TIMESTEP
4500
ITEM: NUMBER OF ENTRIES
1
ITEM: BOX BOUNDS pp pp pp
0.0000000000000000e+00 1.0000000000000000e+02
0.0000000000000000e+00 1.0000000000000000e+02
0.0000000000000000e+00 1.0000000000000000e+03
ITEM: ENTRIES c_myAngle
128.791 
ITEM: TIMESTEP
4600
ITEM: NUMBER OF ENTRIES
1
ITEM: BOX BOUNDS pp pp pp
0.0000000000000000e+00 1.0000000000000000e+02
0.0000000000000000e+00 1.0000000000000000e+02
0.0000000000000000e+00 1.0000000000000000e+03
ITEM: ENTRIES c_myAngle
148.478 
ITEM: TIMESTEP
4700
ITEM: NUMBER OF ENTRIES
1
ITEM: BOX BOUNDS pp pp pp
0.0000000000000000e+00 1.0000000000000000e+02
0.0000000000000000e+00 1.0000000000000000e+02
0.0000000000000000e+00 1.0000000000000000e+03
ITEM: ENTRIES c_myAngle
148.757 
ITEM: TIMESTEP
4800
ITEM: NUMBER OF ENTRIES
1
ITEM: BOX BOUNDS pp pp pp
0.0000000000000000e+00 1.0000000000000000e+02
0.0000000000000000e+00 1.0000000000000000e+02
0.0000000000000000e+00 1.0000000000000000e+03
ITEM: ENTRIES c_myAngle
164.375 
ITEM: TIMESTEP
4900
ITEM: NUMBER OF ENTRIES
1
ITEM: BOX BOUNDS pp pp pp
0.0000000000000000e+00 1.0000000000000000e+02
0.0000000000000000e+00 1.0000000000000000e+02
0.0000000000000000e+00 1.0000000000000000e+03
ITEM: ENTRIES c_myAngle
145.484 
ITEM: TIMESTEP
5000
ITEM: NUMBER OF ENTRIES
1
ITEM: BOX BOUNDS pp pp pp
0.0000000000000000e+00 1.0000000000000000e+02
0.0000000000000000e+00 1.0000000000000000e+02
0.0000000000000000e+00 1.0000000000000000e+03
ITEM: ENTRIES c_myAngle
161.383 
ITEM: TIMESTEP
5100
ITEM: NUMBER OF ENTRIES
1
ITEM: BOX BOUNDS pp pp pp
0.0000000000000000e+00 1.0000000000000000e+02
0.0000000000000000e+00 1.0000000000000000e+02
0.0000000000000000e+00 1.0000000000000000e+03
ITEM: ENTRIES c_myAngle
149.845 
ITEM: TIMESTEP
5200
ITEM: NUMBER OF ENTRIES
1
ITEM: BOX BOUNDS pp pp pp
0.0000000000000000e+00 1.0000000000000000e+02
0.0000000000000000e+00 1.0000000000000000e+02
0.0000000000000000e+00 1.0000000000000000e+03
ITEM: ENTRIES c_myAngle
148.266 
ITEM: TIMESTEP
5300
ITEM: NUMBER OF ENTRIES
1
ITEM: BOX BOUNDS pp pp pp
0.0000000000000000e+00 1.0000000000000000e+02
0.0000000000000000e+00 1.0000000000000000e+02
0.0000000000000000e+00 1.0000000000000000e+03
ITEM: ENTRIES c_myAngle
157.291 
ITEM: TIMESTEP
5400
ITEM: NUMBER OF ENTRIES
1
ITEM: BOX BOUNDS pp pp pp
0.0000000000000000e+00 1.0000000000000000e+02
0.0000000000000000e+00 1.0000000000000000e+02
0.0000000000000000e+00 1.0000000000000000e+03
ITEM: ENTRIES c_myAngle
156.426 
ITEM: TIMESTEP
5500
ITEM: NUMBER OF ENTRIES
1
ITEM: BOX BOUNDS pp pp pp
0.0000000000000000e+00 1.0000000000000000e+02
0.0000000000000000e+00 1.0000000000000000e+02
0.0000000000000000e+00 1.0000000000000000e+03
ITEM: ENTRIES c_myAngle
150.426 
ITEM: TIMESTEP
5600
ITEM: NUMBER OF ENTRIES
1
ITEM: BOX BOUNDS pp pp pp
0.0000000000000000e+00 1.0000000000000000e+02
0.0000000000000000e+00 1.0000000000000000e+02
0.0000000000000000e+00 1.0000000000000000e+03
ITEM: ENTRIES c_myAngle
150.001 
ITEM: TIMESTEP
5700
ITEM: NUMBER OF ENTRIES
1
ITEM: BOX BOUNDS pp pp pp
0.0000000000000000e+00 1.0000000000000000e+02
0.0000000000000000e+00 1.0000000000000000e+02
0.0000000000000000e+00 1.0000000000000000e+03
ITEM: ENTRIES c_myAngle
157.264 
ITEM: TIMESTEP
5800
ITEM: NUMBER OF ENTRIES
1
ITEM: BOX BOUNDS pp pp pp
0.0000000000000000e+00 1.0000000000000000e+02
0.0000000000000000e+00 1.0000000000000000e+02
0.0000000000000000e+00 1.0000000000000000e+03
ITEM: ENTRIES c_myAngle
178.396 
ITEM: TIMESTEP
5900
ITEM: NUMBER OF ENTRIES
1
ITEM: BOX BOUNDS pp pp pp
0.0000000000000000e+00 1.0000000000000000e+02
0.0000000000000000e+00 1.0000000000000000e+02
0.0000000000000000e+00 1.0000000000000000e+03
ITEM: ENTRIES c_myAngle
167.258 
ITEM: TIMESTEP
6000
ITEM: NUMBER OF ENTRIES
1
ITEM: BOX BOUNDS pp pp pp
0.0000000000000000e+00 1.0000000000000000e+02
0.0000000000000000e+00 1.0000000000000000e+02
0.0000000000000000e+00 1.0000000000000000e+03
ITEM: ENTRIES c_myAngle
174.692 
ITEM: TIMESTEP
6100
ITEM: NUMBER OF ENTRIES
1
ITEM: BOX BOUNDS pp pp pp
0.0000000000000000e+00 1.0000000000000000e+02
0.0000000000000000e+00 1.0000000000000000e+02
0.0000000000000000e+00 1.0000000000000000e+03
ITEM: ENTRIES c_myAngle
155.319 
ITEM: TIMESTEP
6200
ITEM: NUMBER OF ENTRIES
1
ITEM: BOX BOUNDS pp pp pp
0.0000000000000000e+00 1.0000000000000000e+02
0.0000000000000000e+00 1.0000000000000000e+02
0.0000000000000000e+00 1.0000000000000000e+03
ITEM: ENTRIES c_myAngle
169.923 
ITEM: TIMESTEP
6300
ITEM: NUMBER OF ENTRIES
1
ITEM: BOX BOUNDS pp pp pp
0.0000000000000000e+00 1.0000000000000000e+02
0.0000000000000000e+00 1.0000000000000000e+02
0.0000000000000000e+00 1.0000000000000000e+03
ITEM: ENTRIES c_myAngle
141.783 
ITEM: TIMESTEP
6400
ITEM: NUMBER OF ENTRIES
1
ITEM: BOX BOUNDS pp pp pp
0.0000000000000000e+00 1.0000000000000000e+02
0.0000000000000000e+00 1.0000000000000000e+02
0.0000000000000000e+00 1.0000000000000000e+03
ITEM: ENTRIES c_myAngle
147.728 
ITEM: TIMESTEP
6500
ITEM: NUMBER OF ENTRIES
1
ITEM: BOX BOUNDS pp pp pp
0.0000000000000000e+00 1.0000000000000000e+02
0.0000000000000000e+00 1.0000000000000000e+02
0.0000000000000000e+00 1.0000000000000000e+03
ITEM: ENTRIES c_myAngle
155.207 
ITEM: TIMESTEP
6600
ITEM: NUMBER OF ENTRIES
1
ITEM: BOX BOUNDS pp pp pp
0.0000000000000000e+00 1.0000000000000000e+02
0.0000000000000000e+00 1.0000000000000000e+02
0.0000000000000000e+00 1.0000000000000000e+03
ITEM: ENTRIES c_myAngle
167.288 
ITEM: TIMESTEP
6700
ITEM: NUMBER OF ENTRIES
1
ITEM: BOX BOUNDS pp pp pp
0.0000000000000000e+00 1.0000000000000000e+02
0.0000000000000000e+00 1.0000000000000000e+02
0.0000000000000000e+00 1.0000000000000000e+03
ITEM: ENTRIES c_myAngle
154.137 
ITEM: TIMESTEP
6800
ITEM: NUMBER OF ENTRIES
1
ITEM: BOX BOUNDS pp pp pp
0.0000000000000000e+00 1.0000000000000000e+02
0.0000000000000000e+00 1.0000000000000000e+02
0.0000000000000000e+00 1.0000000000000000e+03
ITEM: ENTRIES c_myAngle
158.112 
ITEM: TIMESTEP
6900
ITEM: NUMBER OF ENTRIES
1
ITEM: BOX BOUNDS pp pp pp
0.0000000000000000e+00 1.0000000000000000e+02
0.0000000000000000e+00 1.0000000000000000e+02
0.0000000000000000e+00 1.0000000000000000e+03
ITEM: ENTRIES c_myAngle
148.013 
ITEM: TIMESTEP
7000
ITEM: NUMBER OF ENTRIES
1
ITEM: BOX BOUNDS pp pp pp
0.0000000000000000e+00 1.0000000000000000e+02
0.0000000000000000e+00 1.0000000000000000e+02
0.0000000000000000e+00 1.0000000000000000e+03
ITEM: ENTRIES c_myAngle
147.816 
ITEM: TIMESTEP
7100
ITEM: NUMBER OF ENTRIES
1
ITEM: BOX BOUNDS pp pp pp
0.0000000000000000e+00 1.0000000000000000e+02
0.0000000000000000e+00 1.0000000000000000e+02
0.0000000000000000e+00 1.0000000000000000e+03
ITEM: ENTRIES c_myAngle
172.008 
ITEM: TIMESTEP
7200
ITEM: NUMBER OF ENTRIES
1
ITEM: BOX BOUNDS pp pp pp
0.0000000000000000e+00 1.0000000000000000e+02
0.0000000000000000e+00 1.0000000000000000e+02
0.0000000000000000e+00 1.0000000000000000e+03
ITEM: ENTRIES c_myAngle
164.083 
ITEM: TIMESTEP
7300
ITEM: NUMBER OF ENTRIES
1
ITEM: BOX BOUNDS pp pp pp
0.0000000000000000e+00 1.0000000000000000e+02
0.0000000000000000e+00 1.0000000000000000e+02
0.0000000000000000e+00 1.0000000000000000e+03
ITEM: ENTRIES c_myAngle
151.578 
ITEM: TIMESTEP
7400
ITEM: NUMBER OF ENTRIES
1
ITEM: BOX BOUNDS pp pp pp
0.0000000000000000e+00 1.0000000000000000e+02
0.0000000000000000e+00 1.0000000000000000e+02
0.0000000000000000e+00 1.0000000000000000e+03
ITEM: ENTRIES c_myAngle
151.272 
ITEM: TIMESTEP
7500
ITEM: NUMBER OF ENTRIES
1
ITEM: BOX BOUNDS pp pp pp
0.0000000000000000e+00 1.0000000000000000e+02
0.0000000000000000e+00 1.0000000000000000e+02
0.0000000000000000e+00 1.0000000000000000e+03
ITEM: ENTRIES c_myAngle
161.245 
ITEM: TIMESTEP
7600
ITEM: NUMBER OF ENTRIES
1
ITEM: BOX BOUNDS pp pp pp
0.0000000000000000e+00 1.0000000000000000e+02
0.0000000000000000e+00 1.0000000000000000e+02
0.0000000000000000e+00 1.0000000000000000e+03
ITEM: ENTRIES c_myAngle
155.676 
ITEM: TIMESTEP
7700
ITEM: NUMBER OF ENTRIES
1
ITEM: BOX BOUNDS pp pp pp
0.0000000000000000e+00 1.0000000000000000e+02
0.0000000000000000e+00 1.0000000000000000e+02
0.0000000000000000e+00 1.0000000000000000e+03
ITEM: ENTRIES c_myAngle
176.263 
ITEM: TIMESTEP
7800
ITEM: NUMBER OF ENTRIES
1
ITEM: BOX BOUNDS pp pp pp
0.0000000000000000e+00 1.0000000000000000e+02
0.0000000000000000e+00 1.0000000000000000e+02
0.0000000000000000e+00 1.0000000000000000e+03
ITEM: ENTRIES c_myAngle
160.938 
ITEM: TIMESTEP
7900
ITEM: NUMBER OF ENTRIES
1
ITEM: BOX BOUNDS pp pp pp
0.0000000000000000e+00 1.0000000000000000e+02
0.0000000000000000e+00 1.0000000000000000e+02
0.0000000000000000e+00 1.0000000000000000e+03
ITEM: ENTRIES c_myAngle
173.346 
ITEM: TIMESTEP
8000
ITEM: NUMBER OF ENTRIES
1
ITEM: BOX BOUNDS pp pp pp
0.0000000000000000e+00 1.0000000000000000e+02
0.0000000000000000e+00 1.0000000000000000e+02
0.0000000000000000e+00 1.0000000000000000e+03
ITEM: ENTRIES c_myAngle
150.156 
ITEM: TIMESTEP
8100
ITEM: NUMBER OF ENTRIES
1
ITEM: BOX BOUNDS pp pp pp
0.0000000000000000e+00 1.0000000000000000e+02
0.0000000000000000e+00 1.0000000000000000e+02
0.0000000000000000e+00 1.0000000000000000e+03
ITEM: ENTRIES c_myAngle
176.965 
ITEM: TIMESTEP
8200
ITEM: NUMBER OF ENTRIES
1
ITEM: BOX BOUNDS pp pp pp
0.0000000000000000e+00 1.0000000000000000e+02
0.0000000000000000e+00 1.0000000000000000e+02
0.0000000000000000e+00 1.0000000000000000e+03
ITEM: ENTRIES c_myAngle
164.846 
ITEM: TIMESTEP
8300
ITEM: NUMBER OF ENTRIES
1
ITEM: BOX BOUNDS pp pp pp
0.0000000000000000e+00 1.0000000000000000e+02
0.0000000000000000e+00 1.0000000000000000e+02
0.0000000000000000e+00 1.0000000000000000e+03
ITEM: ENTRIES c_myAngle
164.488 
ITEM: TIMESTEP
8400
ITEM: NUMBER OF ENTRIES
1
ITEM: BOX BOUNDS pp pp pp
0.0000000000000000e+00 1.0000000000000000e+02
0.0000000000000000e+00 1.0000000000000000e+02
0.0000000000000000e+00 1.0000000000000000e+03
ITEM: ENTRIES c_myAngle
162.66 
ITEM: TIMESTEP
8500
ITEM: NUMBER OF ENTRIES
1
ITEM: BOX BOUNDS pp pp pp
0.0000000000000000e+00 1.0000000000000000e+02
0.0000000000000000e+00 1.0000000000000000e+02
0.0000000000000000e+00 1.0000000000000000e+03
ITEM: ENTRIES c_myAngle
154.787 
ITEM: TIMESTEP
8600
ITEM: NUMBER OF ENTRIES
1
ITEM: BOX BOUNDS pp pp pp
0.0000000000000000e+00 1.0000000000000000e+02
0.0000000000000000e+00 1.0000000000000000e+02
0.0000000000000000e+00 1.0000000000000000e+03
ITEM: ENTRIES c_myAngle
153.574 
ITEM: TIMESTEP
8700
ITEM: NUMBER OF ENTRIES
1
ITEM: BOX BOUNDS pp pp pp
0.0000000000000000e+00 1.0000000000000000e+02
0.0000000000000000e+00 1.0000000000000000e+02
0.0000000000000000e+00 1.0000000000000000e+03
ITEM: ENTRIES c_myAngle
164.352 
ITEM: TIMESTEP
8800
ITEM: NUMBER OF ENTRIES
1
ITEM: BOX BOUNDS pp pp pp
0.0000000000000000e+00 1.0000000000000000e+02
0.0000000000000000e+00 1.0000000000000000e+02
0.0000000000000000e+00 1.0000000000000000e+03
ITEM: ENTRIES c_myAngle
169.947 
ITEM: TIMESTEP
8900
ITEM: NUMBER OF ENTRIES
1
ITEM: BOX BOUNDS pp pp pp
0.0000000000000000e+00 1.0000000000000000e+02
0.0000000000000000e+00 1.0000000000000000e+02
0.0000000000000000e+00 1.0000000000000000e+03
ITEM: ENTRIES c_myAngle
155.975 
ITEM: TIMESTEP
9000
ITEM: NUMBER OF ENTRIES
1
ITEM: BOX BOUNDS pp pp pp
0.0000000000000000e+00 1.0000000000000000e+02
0.0000000000000000e+00 1.0000000000000000e+02
0.0000000000000000e+00 1.0000000000000000e+03
ITEM: ENTRIES c_myAngle
175.096 
ITEM: TIMESTEP
9100
ITEM: NUMBER OF ENTRIES
1
ITEM: BOX BOUNDS pp pp pp
0.0000000000000000e+00 1.0000000000000000e+02
0.0000000000000000e+00 1.0000000000000000e+02
0.0000000000000000e+00 1.0000000000000000e+03
ITEM: ENTRIES c_myAngle
161.518 
ITEM: TIMESTEP
9200
ITEM: NUMBER OF ENTRIES
1
ITEM: BOX BOUNDS pp pp pp
0.0000000000000000e+00 1.0000000000000000e+02
0.0000000000000000e+00 1.0000000000000000e+02
0.0000000000000000e+00 1.0000000000000000e+03
ITEM: ENTRIES c_myAngle
153.997 
ITEM: TIMESTEP
9300
ITEM: NUMBER OF ENTRIES
1
ITEM: BOX BOUNDS pp pp pp
0.0000000000000000e+00 1.0000000000000000e+02
0.0000000000000000e+00 1.0000000000000000e+02
0.0000000000000000e+00 1.0000000000000000e+03
ITEM: ENTRIES c_myAngle
151.776 
ITEM: TIMESTEP
9400
ITEM: NUMBER OF ENTRIES
1
ITEM: BOX BOUNDS pp pp pp
0.0000000000000000e+00 1.0000000000000000e+02
0.0000000000000000e+00 1.0000000000000000e+02
0.0000000000000000e+00 1.0000000000000000e+03
ITEM: ENTRIES c_myAngle
165.277 
ITEM: TIMESTEP
9500
ITEM: NUMBER OF ENTRIES
1
ITEM: BOX BOUNDS pp pp pp
0.0000000000000000e+00 1.0000000000000000e+02
0.0000000000000000e+00 1.0000000000000000e+02
0.0000000000000000e+00 1.0000000000000000e+03
ITEM: ENTRIES c_myAngle
153.165 
ITEM: TIMESTEP
9600
ITEM: NUMBER OF ENTRIES
1
ITEM: BOX BOUNDS pp pp pp
0.0000000000000000e+00 1.0000000000000000e+02
0.0000000000000000e+00 1.0000000000000000e+02
0.0000000000000000e+00 1.0000000000000000e+03
ITEM: ENTRIES c_myAngle
154.753 
ITEM: TIMESTEP
9700
ITEM: NUMBER OF ENTRIES
1
ITEM: BOX BOUNDS pp pp pp
0.0000000000000000e+00 1.0000000000000000e+02
0.0000000000000000e+00 1.0000000000000000e+02
0.0000000000000000e+00 1.0000000000000000e+03
ITEM: ENTRIES c_myAngle
160.026 
ITEM: TIMESTEP
9800
ITEM: NUMBER OF ENTRIES
1
ITEM: BOX BOUNDS pp pp pp
0.0000000000000000e+00 1.0000000000000000e+02
0.0000000000000000e+00 1.0000000000000000e+02
0.0000000000000000e+00 1.0000000000000000e+03
ITEM: ENTRIES c_myAngle
168.772 
ITEM: TIMESTEP
9900
ITEM: NUMBER OF ENTRIES
1
ITEM: BOX BOUNDS pp pp pp
0.0000000000000000e+00 1.0000000000000000e+02
0.0000000000000000e+00 1.0000000000000000e+02
0.0000000000000000e+00 1.0000000000000000e+03
ITEM: ENTRIES c_myAngle
141.932 
ITEM: TIMESTEP
10000
ITEM: NUMBER OF ENTRIES
1
ITEM: BOX BOUNDS pp pp pp
0.0000000000000000e+00 1.0000000000000000e+02
0.0000000000000000e+00 1.0000000000000000e+02
0.0000000000000000e+00 1.0000000000000000e+03
ITEM: ENTRIES c_myAngle
176.581 
ITEM: TIMESTEP
10100
ITEM: NUMBER OF ENTRIES
1
ITEM: BOX BOUNDS pp pp pp
0.0000000000000000e+00 1.0000000000000000e+02
0.0000000000000000e+00 1.0000000000000000e+02
0.0000000000000000e+00 1.0000000000000000e+03
ITEM: ENTRIES c_myAngle
160.785 
ITEM: TIMESTEP
10200
ITEM: NUMBER OF ENTRIES
1
ITEM: BOX BOUNDS pp pp pp
0.0000000000000000e+00 1.0000000000000000e+02
0.0000000000000000e+00 1.0000000000000000e+02
0.0000000000000000e+00 1.0000000000000000e+03
ITEM: ENTRIES c_myAngle
157.188 
ITEM: TIMESTEP
10300
ITEM: NUMBER OF ENTRIES
1
ITEM: BOX BOUNDS pp pp pp
0.0000000000000000e+00 1.0000000000000000e+02
0.0000000000000000e+00 1.0000000000000000e+02
0.0000000000000000e+00 1.0000000000000000e+03
ITEM: ENTRIES c_myAngle
158.206 
ITEM: TIMESTEP
10400
ITEM: NUMBER OF ENTRIES
1
ITEM: BOX BOUNDS pp pp pp
0.0000000000000000e+00 1.0000000000000000e+02
0.0000000000000000e+00 1.0000000000000000e+02
0.0000000000000000e+00 1.0000000000000000e+03
ITEM: ENTRIES c_myAngle
148.039 
ITEM: TIMESTEP
10500
ITEM: NUMBER OF ENTRIES
1
ITEM: BOX BOUNDS pp pp pp
0.0000000000000000e+00 1.0000000000000000e+02
0.0000000000000000e+00 1.0000000000000000e+02
0.0000000000000000e+00 1.0000000000000000e+03
ITEM: ENTRIES c_myAngle
148.285 
ITEM: TIMESTEP
10600
ITEM: NUMBER OF ENTRIES
1
ITEM: BOX BOUNDS pp pp pp
0.0000000000000000e+00 1.0000000000000000e+02
0.0000000000000000e+00 1.0000000000000000e+02
0.0000000000000000e+00 1.0000000000000000e+03
ITEM: ENTRIES c_myAngle
175.328 
ITEM: TIMESTEP
10700
ITEM: NUMBER OF ENTRIES
1
ITEM: BOX BOUNDS pp pp pp
0.0000000000000000e+00 1.0000000000000000e+02
0.0000000000000000e+00 1.0000000000000000e+02
0.0000000000000000e+00 1.0000000000000000e+03
ITEM: ENTRIES c_myAngle
157.314 
ITEM: TIMESTEP
10800
ITEM: NUMBER OF ENTRIES
1
ITEM: BOX BOUNDS pp pp pp
0.0000000000000000e+00 1.0000000000000000e+02
0.0000000000000000e+00 1.0000000000000000e+02
0.0000000000000000e+00 1.0000000000000000e+03
ITEM: ENTRIES c_myAngle
142.194 
ITEM: TIMESTEP
10900
ITEM: NUMBER OF ENTRIES
1
ITEM: BOX BOUNDS pp pp pp
0.0000000000000000e+00 1.0000000000000000e+02
0.0000000000000000e+00 1.0000000000000000e+02
0.0000000000000000e+00 1.0000000000000000e+03
ITEM: ENTRIES c_myAngle
170.173 
ITEM: TIMESTEP
11000
ITEM: NUMBER OF ENTRIES
1
ITEM: BOX BOUNDS pp pp pp
0.0000000000000000e+00 1.0000000000000000e+02
0.0000000000000000e+00 1.0000000000000000e+02
0.0000000000000000e+00 1.0000000000000000e+03
ITEM: ENTRIES c_myAngle
175.304 
ITEM: TIMESTEP
11100
ITEM: NUMBER OF ENTRIES
1
ITEM: BOX BOUNDS pp pp pp
0.0000000000000000e+00 1.0000000000000000e+02
0.0000000000000000e+00 1.0000000000000000e+02
0.0000000000000000e+00 1.0000000000000000e+03
ITEM: ENTRIES c_myAngle
163.78 
ITEM: TIMESTEP
11200
ITEM: NUMBER OF ENTRIES
1
ITEM: BOX BOUNDS pp pp pp
0.0000000000000000e+00 1.0000000000000000e+02
0.0000000000000000e+00 1.0000000000000000e+02
0.0000000000000000e+00 1.0000000000000000e+03
ITEM: ENTRIES c_myAngle
154.652 
ITEM: TIMESTEP
11300
ITEM: NUMBER OF ENTRIES
1
ITEM: BOX BOUNDS pp pp pp
0.0000000000000000e+00 1.0000000000000000e+02
0.0000000000000000e+00 1.0000000000000000e+02
0.0000000000000000e+00 1.0000000000000000e+03
ITEM: ENTRIES c_myAngle
171.594 
ITEM: TIMESTEP
11400
ITEM: NUMBER OF ENTRIES
1
ITEM: BOX BOUNDS pp pp pp
0.0000000000000000e+00 1.0000000000000000e+02
0.0000000000000000e+00 1.0000000000000000e+02
0.0000000000000000e+00 1.0000000000000000e+03
ITEM: ENTRIES c_myAngle
168.074 
ITEM: TIMESTEP
11500
ITEM: NUMBER OF ENTRIES
1
ITEM: BOX BOUNDS pp pp pp
0.0000000000000000e+00 1.0000000000000000e+02
0.0000000000000000e+00 1.0000000000000000e+02
0.0000000000000000e+00 1.0000000000000000e+03
ITEM: ENTRIES c_myAngle
165.753 
ITEM: TIMESTEP
11600
ITEM: NUMBER OF ENTRIES
1
ITEM: BOX BOUNDS pp pp pp
0.0000000000000000e+00 1.0000000000000000e+02
0.0000000000000000e+00 1.0000000000000000e+02
0.0000000000000000e+00 1.0000000000000000e+03
ITEM: ENTRIES c_myAngle
170.853 
ITEM: TIMESTEP
11700
ITEM: NUMBER OF ENTRIES
1
ITEM: BOX BOUNDS pp pp pp
0.0000000000000000e+00 1.0000000000000000e+02
0.0000000000000000e+00 1.0000000000000000e+02
0.0000000000000000e+00 1.0000000000000000e+03
ITEM: ENTRIES c_myAngle
158.549 
ITEM: TIMESTEP
11800
ITEM: NUMBER OF ENTRIES
1
ITEM: BOX BOUNDS pp pp pp
0.0000000000000000e+00 1.0000000000000000e+02
0.0000000000000000e+00 1.0000000000000000e+02
0.0000000000000000e+00 1.0000000000000000e+03
ITEM: ENTRIES c_myAngle
154.457 
ITEM: TIMESTEP
11900
ITEM: NUMBER OF ENTRIES
1
ITEM: BOX BOUNDS pp pp pp
0.0000000000000000e+00 1.0000000000000000e+02
0.0000000000000000e+00 1.0000000000000000e+02
0.0000000000000000e+00 1.0000000000000000e+03
ITEM: ENTRIES c_myAngle
170.19 
ITEM: TIMESTEP
12000
ITEM: NUMBER OF ENTRIES
1
ITEM: BOX BOUNDS pp pp pp
0.0000000000000000e+00 1.0000000000000000e+02
0.0000000000000000e+00 1.0000000000000000e+02
0.0000000000000000e+00 1.0000000000000000e+03
ITEM: ENTRIES c_myAngle
171.869 
ITEM: TIMESTEP
12100
ITEM: NUMBER OF ENTRIES
1
ITEM: BOX BOUNDS pp pp pp
0.0000000000000000e+00 1.0000000000000000e+02
0.0000000000000000e+00 1.0000000000000000e+02
0.0000000000000000e+00 1.0000000000000000e+03
ITEM: ENTRIES c_myAngle
168.603 
ITEM: TIMESTEP
12200
ITEM: NUMBER OF ENTRIES
1
ITEM: BOX BOUNDS pp pp pp
0.0000000000000000e+00 1.0000000000000000e+02
0.0000000000000000e+00 1.0000000000000000e+02
0.0000000000000000e+00 1.0000000000000000e+03
ITEM: ENTRIES c_myAngle
160.811 
ITEM: TIMESTEP
12300
ITEM: NUMBER OF ENTRIES
1
ITEM: BOX BOUNDS pp pp pp