ITEM: TIMESTEP
0
ITEM: NUMBER OF ENTRIES
2
ITEM: BOX BOUNDS pp pp pp
0.0000000000000000e+00 1.0000000000000000e+02
0.0000000000000000e+00 1.0000000000000000e+02
0.0000000000000000e+00 1.0000000000000000e+03
ITEM: ENTRIES c_btype c_bondlen
1 1 
1 1 
ITEM: TIMESTEP
100
ITEM: NUMBER OF ENTRIES
2
ITEM: BOX BOUNDS pp pp pp
0.0000000000000000e+00 1.0000000000000000e+02
0.0000000000000000e+00 1.0000000000000000e+02
0.0000000000000000e+00 1.0000000000000000e+03
ITEM: ENTRIES c_btype c_bondlen
1 1.00547 
1 1.0079 
ITEM: TIMESTEP
200
ITEM: NUMBER OF ENTRIES
2
ITEM: BOX BOUNDS pp pp pp
0.0000000000000000e+00 1.0000000000000000e+02
0.0000000000000000e+00 1.0000000000000000e+02
0.0000000000000000e+00 1.0000000000000000e+03
ITEM: ENTRIES c_btype c_bondlen
1 1.09881 
1 0.981094 
ITEM: TIMESTEP
300
ITEM: NUMBER OF ENTRIES
2
ITEM: BOX BOUNDS pp pp pp
0.0000000000000000e+00 1.0000000000000000e+02
0.0000000000000000e+00 1.0000000000000000e+02
0.0000000000000000e+00 1.0000000000000000e+03
ITEM: ENTRIES c_btype c_bondlen
1 1.12409 
1 1.03508 
ITEM: TIMESTEP
400
ITEM: NUMBER OF ENTRIES
2
ITEM: BOX BOUNDS pp pp pp
0.0000000000000000e+00 1.0000000000000000e+02
0.0000000000000000e+00 1.0000000000000000e+02
0.0000000000000000e+00 1.0000000000000000e+03
ITEM: ENTRIES c_btype c_bondlen
1 0.93227 
1 1.09495 
ITEM: TIMESTEP
500
ITEM: NUMBER OF ENTRIES
2
ITEM: BOX BOUNDS pp pp pp
0.0000000000000000e+00 1.0000000000000000e+02
0.0000000000000000e+00 1.0000000000000000e+02
0.0000000000000000e+00 1.0000000000000000e+03
ITEM: ENTRIES c_btype c_bondlen
1 1.07842 
1 1.31422 
ITEM: TIMESTEP
600
ITEM: NUMBER OF ENTRIES
2
ITEM: BOX BOUNDS pp pp pp
0.0000000000000000e+00 1.0000000000000000e+02
0.0000000000000000e+00 1.0000000000000000e+02
0.0000000000000000e+00 1.0000000000000000e+03
ITEM: ENTRIES c_btype c_bondlen
1 0.732508 
1 1.02516 
ITEM: TIMESTEP
700
ITEM: NUMBER OF ENTRIES
2
ITEM: BOX BOUNDS pp pp pp
0.0000000000000000e+00 1.0000000000000000e+02
0.0000000000000000e+00 1.0000000000000000e+02
0.0000000000000000e+00 1.0000000000000000e+03
ITEM: ENTRIES c_btype c_bondlen
1 1.20652 
1 0.944507 
ITEM: TIMESTEP
800
ITEM: NUMBER OF ENTRIES
2
ITEM: BOX BOUNDS pp pp pp
0.0000000000000000e+00 1.0000000000000000e+02
0.0000000000000000e+00 1.0000000000000000e+02
0.0000000000000000e+00 1.0000000000000000e+03
ITEM: ENTRIES c_btype c_bondlen
1 1.08089 
1 0.782198 
ITEM: TIMESTEP
900
ITEM: NUMBER OF ENTRIES
2
ITEM: BOX BOUNDS pp pp pp
0.0000000000000000e+00 1.0000000000000000e+02
0.0000000000000000e+00 1.0000000000000000e+02
0.0000000000000000e+00 1.0000000000000000e+03
ITEM: ENTRIES c_btype c_bondlen
1 1.0297 
1 1.17319 
ITEM: TIMESTEP
1000
ITEM: NUMBER OF ENTRIES
2
ITEM: BOX BOUNDS pp pp pp
0.0000000000000000e+00 1.0000000000000000e+02
0.0000000000000000e+00 1.0000000000000000e+02
0.0000000000000000e+00 1.0000000000000000e+03
ITEM: ENTRIES c_btype c_bondlen
1 1.05012 
1 1.25923 
ITEM: TIMESTEP
1100
ITEM: NUMBER OF ENTRIES
2
ITEM: BOX BOUNDS pp pp pp
0.0000000000000000e+00 1.0000000000000000e+02
0.0000000000000000e+00 1.0000000000000000e+02
0.0000000000000000e+00 1.0000000000000000e+03
ITEM: ENTRIES c_btype c_bondlen
1 1.04783 
1 0.97279 
ITEM: TIMESTEP
1200
ITEM: NUMBER OF ENTRIES
2
ITEM: BOX BOUNDS pp pp pp
0.0000000000000000e+00 1.0000000000000000e+02
0.0000000000000000e+00 1.0000000000000000e+02
0.0000000000000000e+00 1.0000000000000000e+03
ITEM: ENTRIES c_btype c_bondlen
1 1.3126 
1 1.06991 
ITEM: TIMESTEP
1300
ITEM: NUMBER OF ENTRIES
2
ITEM: BOX BOUNDS pp pp pp
0.0000000000000000e+00 1.0000000000000000e+02
0.0000000000000000e+00 1.0000000000000000e+02
0.0000000000000000e+00 1.0000000000000000e+03
ITEM: ENTRIES c_btype c_bondlen
1 0.849097 
1 1.08286 
ITEM: TIMESTEP
1400
ITEM: NUMBER OF ENTRIES
2
ITEM: BOX BOUNDS pp pp pp
0.0000000000000000e+00 1.0000000000000000e+02
0.0000000000000000e+00 1.0000000000000000e+02
0.0000000000000000e+00 1.0000000000000000e+03
ITEM: ENTRIES c_btype c_bondlen
1 0.913633 
1 1.13806 
ITEM: TIMESTEP
1500
ITEM: NUMBER OF ENTRIES
2
ITEM: BOX BOUNDS pp pp pp
0.0000000000000000e+00 1.0000000000000000e+02
0.0000000000000000e+00 1.0000000000000000e+02
0.0000000000000000e+00 1.0000000000000000e+03
ITEM: ENTRIES c_btype c_bondlen
1 1.1705 
1 1.04398 
ITEM: TIMESTEP
1600
ITEM: NUMBER OF ENTRIES
2
ITEM: BOX BOUNDS pp pp pp
0.0000000000000000e+00 1.0000000000000000e+02
0.0000000000000000e+00 1.0000000000000000e+02
0.0000000000000000e+00 1.0000000000000000e+03
ITEM: ENTRIES c_btype c_bondlen
1 1.04051 
1 0.900085 
ITEM: TIMESTEP
1700
ITEM: NUMBER OF ENTRIES
2
ITEM: BOX BOUNDS pp pp pp
0.0000000000000000e+00 1.0000000000000000e+02
0.0000000000000000e+00 1.0000000000000000e+02
0.0000000000000000e+00 1.0000000000000000e+03
ITEM: ENTRIES c_btype c_bondlen
1 1.18331 
1 1.02385 
ITEM: TIMESTEP
1800
ITEM: NUMBER OF ENTRIES
2
ITEM: BOX BOUNDS pp pp pp
0.0000000000000000e+00 1.0000000000000000e+02
0.0000000000000000e+00 1.0000000000000000e+02
0.0000000000000000e+00 1.0000000000000000e+03
ITEM: ENTRIES c_btype c_bondlen
1 1.02144 
1 1.11015 
ITEM: TIMESTEP
1900
ITEM: NUMBER OF ENTRIES
2
ITEM: BOX BOUNDS pp pp pp
0.0000000000000000e+00 1.0000000000000000e+02
0.0000000000000000e+00 1.0000000000000000e+02
0.0000000000000000e+00 1.0000000000000000e+03
ITEM: ENTRIES c_btype c_bondlen
1 0.998625 
1 1.21902 
ITEM: TIMESTEP
2000
ITEM: NUMBER OF ENTRIES
2
ITEM: BOX BOUNDS pp pp pp
0.0000000000000000e+00 1.0000000000000000e+02
0.0000000000000000e+00 1.0000000000000000e+02
0.0000000000000000e+00 1.0000000000000000e+03
ITEM: ENTRIES c_btype c_bondlen
1 1.00516 
1 1.11597 
ITEM: TIMESTEP
2100
ITEM: NUMBER OF ENTRIES
2
ITEM: BOX BOUNDS pp pp pp
0.0000000000000000e+00 1.0000000000000000e+02
0.0000000000000000e+00 1.0000000000000000e+02
0.0000000000000000e+00 1.0000000000000000e+03
ITEM: ENTRIES c_btype c_bondlen
1 0.969752 
1 0.936869 
ITEM: TIMESTEP
2200
ITEM: NUMBER OF ENTRIES
2
ITEM: BOX BOUNDS pp pp pp
0.0000000000000000e+00 1.0000000000000000e+02
0.0000000000000000e+00 1.0000000000000000e+02
0.0000000000000000e+00 1.0000000000000000e+03
ITEM: ENTRIES c_btype c_bondlen
1 0.99539 
1 1.04436 
ITEM: TIMESTEP
2300
ITEM: NUMBER OF ENTRIES
2
ITEM: BOX BOUNDS pp pp pp
0.0000000000000000e+00 1.0000000000000000e+02
0.0000000000000000e+00 1.0000000000000000e+02
0.0000000000000000e+00 1.0000000000000000e+03
ITEM: ENTRIES c_btype c_bondlen
1 0.939991 
1 1.08633 
ITEM: TIMESTEP
2400
ITEM: NUMBER OF ENTRIES
2
ITEM: BOX BOUNDS pp pp pp
0.0000000000000000e+00 1.0000000000000000e+02
0.0000000000000000e+00 1.0000000000000000e+02
0.0000000000000000e+00 1.0000000000000000e+03
ITEM: ENTRIES c_btype c_bondlen
1 1.02155 
1 0.939768 
ITEM: TIMESTEP
2500
ITEM: NUMBER OF ENTRIES
2
ITEM: BOX BOUNDS pp pp pp
0.0000000000000000e+00 1.0000000000000000e+02
0.0000000000000000e+00 1.0000000000000000e+02
0.0000000000000000e+00 1.0000000000000000e+03
ITEM: ENTRIES c_btype c_bondlen
1 1.29138 
1 0.992957 
ITEM: TIMESTEP
2600
ITEM: NUMBER OF ENTRIES
2
ITEM: BOX BOUNDS pp pp pp
0.0000000000000000e+00 1.0000000000000000e+02
0.0000000000000000e+00 1.0000000000000000e+02
0.0000000000000000e+00 1.0000000000000000e+03
ITEM: ENTRIES c_btype c_bondlen
1 1.02266 
1 0.949923 
ITEM: TIMESTEP
2700
ITEM: NUMBER OF ENTRIES
2
ITEM: BOX BOUNDS pp pp pp
0.0000000000000000e+00 1.0000000000000000e+02
0.0000000000000000e+00 1.0000000000000000e+02
0.0000000000000000e+00 1.0000000000000000e+03
ITEM: ENTRIES c_btype c_bondlen
1 0.945932 
1 1.19263 
ITEM: TIMESTEP
2800
ITEM: NUMBER OF ENTRIES
2
ITEM: BOX BOUNDS pp pp pp
0.0000000000000000e+00 1.0000000000000000e+02
0.0000000000000000e+00 1.0000000000000000e+02
0.0000000000000000e+00 1.0000000000000000e+03
ITEM: ENTRIES c_btype c_bondlen
1 0.966399 
1 1.10783 
ITEM: TIMESTEP
2900
ITEM: NUMBER OF ENTRIES
2
ITEM: BOX BOUNDS pp pp pp
0.0000000000000000e+00 1.0000000000000000e+02
0.0000000000000000e+00 1.0000000000000000e+02
0.0000000000000000e+00 1.0000000000000000e+03
ITEM: ENTRIES c_btype c_bondlen
1 1.01754 
1 1.16027 
ITEM: TIMESTEP
3000
ITEM: NUMBER OF ENTRIES
2
ITEM: BOX BOUNDS pp pp pp
0.0000000000000000e+00 1.0000000000000000e+02
0.0000000000000000e+00 1.0000000000000000e+02
0.0000000000000000e+00 1.0000000000000000e+03
ITEM: ENTRIES c_btype c_bondlen
1 1.23789 
1 0.882804 
ITEM: TIMESTEP
3100
ITEM: NUMBER OF ENTRIES
2
ITEM: BOX BOUNDS pp pp pp
0.0000000000000000e+00 1.0000000000000000e+02
0.0000000000000000e+00 1.0000000000000000e+02
0.0000000000000000e+00 1.0000000000000000e+03
ITEM: ENTRIES c_btype c_bondlen
1 1.2521 
1 0.922107 
ITEM: TIMESTEP
3200
ITEM: NUMBER OF ENTRIES
2
ITEM: BOX BOUNDS pp pp pp
0.0000000000000000e+00 1.0000000000000000e+02
0.0000000000000000e+00 1.0000000000000000e+02
0.0000000000000000e+00 1.0000000000000000e+03
ITEM: ENTRIES c_btype c_bondlen
1 0.938651 
1 0.935147 
ITEM: TIMESTEP
3300
ITEM: NUMBER OF ENTRIES
2
ITEM: BOX BOUNDS pp pp pp
0.0000000000000000e+00 1.0000000000000000e+02
0.0000000000000000e+00 1.0000000000000000e+02
0.0000000000000000e+00 1.0000000000000000e+03
ITEM: ENTRIES c_btype c_bondlen
1 0.955532 
1 1.30688 
ITEM: TIMESTEP
3400
ITEM: NUMBER OF ENTRIES
2
ITEM: BOX BOUNDS pp pp pp
0.0000000000000000e+00 1.0000000000000000e+02
0.0000000000000000e+00 1.0000000000000000e+02
0.0000000000000000e+00 1.0000000000000000e+03
ITEM: ENTRIES c_btype c_bondlen
1 0.921747 
1 1.02099 
ITEM: TIMESTEP
3500
ITEM: NUMBER OF ENTRIES
2
ITEM: BOX BOUNDS pp pp pp
0.0000000000000000e+00 1.0000000000000000e+02
0.0000000000000000e+00 1.0000000000000000e+02
0.0000000000000000e+00 1.0000000000000000e+03
ITEM: ENTRIES c_btype c_bondlen
1 1.12806 
1 1.11409 
ITEM: TIMESTEP
3600
ITEM: NUMBER OF ENTRIES
2
ITEM: BOX BOUNDS pp pp pp
0.0000000000000000e+00 1.0000000000000000e+02
0.0000000000000000e+00 1.0000000000000000e+02
0.0000000000000000e+00 1.0000000000000000e+03
ITEM: ENTRIES c_btype c_bondlen
1 0.869218 
1 0.972041 
ITEM: TIMESTEP
3700
ITEM: NUMBER OF ENTRIES
2
ITEM: BOX BOUNDS pp pp pp
0.0000000000000000e+00 1.0000000000000000e+02
0.0000000000000000e+00 1.0000000000000000e+02
0.0000000000000000e+00 1.0000000000000000e+03
ITEM: ENTRIES c_btype c_bondlen
1 1.22155 
1 0.958295 
ITEM: TIMESTEP
3800
ITEM: NUMBER OF ENTRIES
2
ITEM: BOX BOUNDS pp pp pp
0.0000000000000000e+00 1.0000000000000000e+02
0.0000000000000000e+00 1.0000000000000000e+02
0.0000000000000000e+00 1.0000000000000000e+03
ITEM: ENTRIES c_btype c_bondlen
1 1.18336 
1 1.00103 
ITEM: TIMESTEP
3900
ITEM: NUMBER OF ENTRIES
2
ITEM: BOX BOUNDS pp pp pp
0.0000000000000000e+00 1.0000000000000000e+02
0.0000000000000000e+00 1.0000000000000000e+02
0.0000000000000000e+00 1.0000000000000000e+03
ITEM: ENTRIES c_btype c_bondlen
1 0.886209 
1 1.09477 
ITEM: TIMESTEP
4000
ITEM: NUMBER OF ENTRIES
2
ITEM: BOX BOUNDS pp pp pp
0.0000000000000000e+00 1.0000000000000000e+02
0.0000000000000000e+00 1.0000000000000000e+02
0.0000000000000000e+00 1.0000000000000000e+03
ITEM: ENTRIES c_btype c_bondlen
1 0.947513 
1 1.24154 
ITEM: TIMESTEP
4100
ITEM: NUMBER OF ENTRIES
2
ITEM: BOX BOUNDS pp pp pp
0.0000000000000000e+00 1.0000000000000000e+02
0.0000000000000000e+00 1.0000000000000000e+02
0.0000000000000000e+00 1.0000000000000000e+03
ITEM: ENTRIES c_btype c_bondlen
1 0.985859 
1 1.1116 
ITEM: TIMESTEP
4200
ITEM: NUMBER OF ENTRIES
2
ITEM: BOX BOUNDS pp pp pp
0.0000000000000000e+00 1.0000000000000000e+02
0.0000000000000000e+00 1.0000000000000000e+02
0.0000000000000000e+00 1.0000000000000000e+03
ITEM: ENTRIES c_btype c_bondlen
1 1.09001 
1 1.15344 
ITEM: TIMESTEP
4300
ITEM: NUMBER OF ENTRIES
2
ITEM: BOX BOUNDS pp pp pp
0.0000000000000000e+00 1.0000000000000000e+02
0.0000000000000000e+00 1.0000000000000000e+02
0.0000000000000000e+00 1.0000000000000000e+03
ITEM: ENTRIES c_btype c_bondlen
1 0.975462 
1 0.739955 
ITEM: TIMESTEP
4400
ITEM: NUMBER OF ENTRIES
2
ITEM: BOX BOUNDS pp pp pp
0.0000000000000000e+00 1.0000000000000000e+02
0.0000000000000000e+00 1.0000000000000000e+02
0.0000000000000000e+00 1.0000000000000000e+03
ITEM: ENTRIES c_btype c_bondlen
1 1.09051 
1 0.906154 
ITEM: TIMESTEP
4500
ITEM: NUMBER OF ENTRIES
2
ITEM: BOX BOUNDS pp pp pp
0.0000000000000000e+00 1.0000000000000000e+02
0.0000000000000000e+00 1.0000000000000000e+02
0.0000000000000000e+00 1.0000000000000000e+03
ITEM: ENTRIES c_btype c_bondlen
1 1.16056 
1 1.16407 
ITEM: TIMESTEP
4600
ITEM: NUMBER OF ENTRIES
2
ITEM: BOX BOUNDS pp pp pp
0.0000000000000000e+00 1.0000000000000000e+02
0.0000000000000000e+00 1.0000000000000000e+02
0.0000000000000000e+00 1.0000000000000000e+03
ITEM: ENTRIES c_btype c_bondlen
1 0.822571 
1 1.10092 
ITEM: TIMESTEP
4700
ITEM: NUMBER OF ENTRIES
2
ITEM: BOX BOUNDS pp pp pp
0.0000000000000000e+00 1.0000000000000000e+02
0.0000000000000000e+00 1.0000000000000000e+02
0.0000000000000000e+00 1.0000000000000000e+03
ITEM: ENTRIES c_btype c_bondlen
1 1.03874 
1 1.24983 
ITEM: TIMESTEP
4800
ITEM: NUMBER OF ENTRIES
2
ITEM: BOX BOUNDS pp pp pp
0.0000000000000000e+00 1.0000000000000000e+02
0.0000000000000000e+00 1.0000000000000000e+02
0.0000000000000000e+00 1.0000000000000000e+03
ITEM: ENTRIES c_btype c_bondlen
1 1.13481 
1 1.02266 
ITEM: TIMESTEP
4900
ITEM: NUMBER OF ENTRIES
2
ITEM: BOX BOUNDS pp pp pp
0.0000000000000000e+00 1.0000000000000000e+02
0.0000000000000000e+00 1.0000000000000000e+02
0.0000000000000000e+00 1.0000000000000000e+03
ITEM: ENTRIES c_btype c_bondlen
1 0.949463 
1 0.870056 
ITEM: TIMESTEP
5000
ITEM: NUMBER OF ENTRIES
2
ITEM: BOX BOUNDS pp pp pp
0.0000000000000000e+00 1.0000000000000000e+02
0.0000000000000000e+00 1.0000000000000000e+02
0.0000000000000000e+00 1.0000000000000000e+03
ITEM: ENTRIES c_btype c_bondlen
1 1.03081 
1 1.21132 
ITEM: TIMESTEP
5100
ITEM: NUMBER OF ENTRIES
2
ITEM: BOX BOUNDS pp pp pp
0.0000000000000000e+00 1.0000000000000000e+02
0.0000000000000000e+00 1.0000000000000000e+02
0.0000000000000000e+00 1.0000000000000000e+03
ITEM: ENTRIES c_btype c_bondlen
1 0.841165 
1 0.931193 
ITEM: TIMESTEP
5200
ITEM: NUMBER OF ENTRIES
2
ITEM: BOX BOUNDS pp pp pp
0.0000000000000000e+00 1.0000000000000000e+02
0.0000000000000000e+00 1.0000000000000000e+02
0.0000000000000000e+00 1.0000000000000000e+03
ITEM: ENTRIES c_btype c_bondlen
1 1.20346 
1 0.949748 
ITEM: TIMESTEP
5300
ITEM: NUMBER OF ENTRIES
2
ITEM: BOX BOUNDS pp pp pp
0.0000000000000000e+00 1.0000000000000000e+02
0.0000000000000000e+00 1.0000000000000000e+02
0.0000000000000000e+00 1.0000000000000000e+03
ITEM: ENTRIES c_btype c_bondlen
1 1.01775 
1 0.932068 
ITEM: TIMESTEP
5400
ITEM: NUMBER OF ENTRIES
2
ITEM: BOX BOUNDS pp pp pp
0.0000000000000000e+00 1.0000000000000000e+02
0.0000000000000000e+00 1.0000000000000000e+02
0.0000000000000000e+00 1.0000000000000000e+03
ITEM: ENTRIES c_btype c_bondlen
1 0.931752 
1 1.13792 
ITEM: TIMESTEP
5500
ITEM: NUMBER OF ENTRIES
2
ITEM: BOX BOUNDS pp pp pp
0.0000000000000000e+00 1.0000000000000000e+02
0.0000000000000000e+00 1.0000000000000000e+02
0.0000000000000000e+00 1.0000000000000000e+03
ITEM: ENTRIES c_btype c_bondlen
1 1.00799 
1 1.08677 
ITEM: TIMESTEP
5600
ITEM: NUMBER OF ENTRIES
2
ITEM: BOX BOUNDS pp pp pp
0.0000000000000000e+00 1.0000000000000000e+02
0.0000000000000000e+00 1.0000000000000000e+02
0.0000000000000000e+00 1.0000000000000000e+03
ITEM: ENTRIES c_btype c_bondlen
1 1.16412 
1 1.03836 
ITEM: TIMESTEP
5700
ITEM: NUMBER OF ENTRIES
2
ITEM: BOX BOUNDS pp pp pp
0.0000000000000000e+00 1.0000000000000000e+02
0.0000000000000000e+00 1.0000000000000000e+02
0.0000000000000000e+00 1.0000000000000000e+03
ITEM: ENTRIES c_btype c_bondlen
1 1.19882 
1 1.06714 
ITEM: TIMESTEP
5800
ITEM: NUMBER OF ENTRIES
2
ITEM: BOX BOUNDS pp pp pp
0.0000000000000000e+00 1.0000000000000000e+02
0.0000000000000000e+00 1.0000000000000000e+02
0.0000000000000000e+00 1.0000000000000000e+03
ITEM: ENTRIES c_btype c_bondlen
1 0.921872 
1 1.01493 
ITEM: TIMESTEP
5900
ITEM: NUMBER OF ENTRIES
2
ITEM: BOX BOUNDS pp pp pp
0.0000000000000000e+00 1.0000000000000000e+02
0.0000000000000000e+00 1.0000000000000000e+02
0.0000000000000000e+00 1.0000000000000000e+03
ITEM: ENTRIES c_btype c_bondlen
1 1.0332 
1 1.19565 
ITEM: TIMESTEP
6000
ITEM: NUMBER OF ENTRIES
2
ITEM: BOX BOUNDS pp pp pp
0.0000000000000000e+00 1.0000000000000000e+02
0.0000000000000000e+00 1.0000000000000000e+02
0.0000000000000000e+00 1.0000000000000000e+03
ITEM: ENTRIES c_btype c_bondlen
1 0.747041 
1 1.09398 
ITEM: TIMESTEP
6100
ITEM: NUMBER OF ENTRIES
2
ITEM: BOX BOUNDS pp pp pp
0.0000000000000000e+00 1.0000000000000000e+02
0.0000000000000000e+00 1.0000000000000000e+02
0.0000000000000000e+00 1.0000000000000000e+03
ITEM: ENTRIES c_btype c_bondlen
1 1.10549 
1 1.14394 
ITEM: TIMESTEP
6200
ITEM: NUMBER OF ENTRIES
2
ITEM: BOX BOUNDS pp pp pp
0.0000000000000000e+00 1.0000000000000000e+02
0.0000000000000000e+00 1.0000000000000000e+02
0.0000000000000000e+00 1.0000000000000000e+03
ITEM: ENTRIES c_btype c_bondlen
1 1.07306 
1 0.943195 
ITEM: TIMESTEP
6300
ITEM: NUMBER OF ENTRIES
2
ITEM: BOX BOUNDS pp pp pp
0.0000000000000000e+00 1.0000000000000000e+02
0.0000000000000000e+00 1.0000000000000000e+02
0.0000000000000000e+00 1.0000000000000000e+03
ITEM: ENTRIES c_btype c_bondlen
1 1.05075 
1 0.931751 
ITEM: TIMESTEP
6400
ITEM: NUMBER OF ENTRIES
2
ITEM: BOX BOUNDS pp pp pp
0.0000000000000000e+00 1.0000000000000000e+02
0.0000000000000000e+00 1.0000000000000000e+02
0.0000000000000000e+00 1.0000000000000000e+03
ITEM: ENTRIES c_btype c_bondlen
1 1.18948 
1 1.24592 
ITEM: TIMESTEP
6500
ITEM: NUMBER OF ENTRIES
2
ITEM: BOX BOUNDS pp pp pp
0.0000000000000000e+00 1.0000000000000000e+02
0.0000000000000000e+00 1.0000000000000000e+02
0.0000000000000000e+00 1.0000000000000000e+03
ITEM: ENTRIES c_btype c_bondlen
1 0.776138 
1 1.07398 
ITEM: TIMESTEP
6600
ITEM: NUMBER OF ENTRIES
2
ITEM: BOX BOUNDS pp pp pp
0.0000000000000000e+00 1.0000000000000000e+02
0.0000000000000000e+00 1.0000000000000000e+02
0.0000000000000000e+00 1.0000000000000000e+03
ITEM: ENTRIES c_btype c_bondlen
1 1.10096 
1 1.16768 
ITEM: TIMESTEP
6700
ITEM: NUMBER OF ENTRIES
2
ITEM: BOX BOUNDS pp pp pp
0.0000000000000000e+00 1.0000000000000000e+02
0.0000000000000000e+00 1.0000000000000000e+02
0.0000000000000000e+00 1.0000000000000000e+03
ITEM: ENTRIES c_btype c_bondlen
1 0.985731 
1 0.654167 
ITEM: TIMESTEP
6800
ITEM: NUMBER OF ENTRIES
2
ITEM: BOX BOUNDS pp pp pp
0.0000000000000000e+00 1.0000000000000000e+02
0.0000000000000000e+00 1.0000000000000000e+02
0.0000000000000000e+00 1.0000000000000000e+03
ITEM: ENTRIES c_btype c_bondlen
1 1.26004 
1 0.929782 
ITEM: TIMESTEP
6900
ITEM: NUMBER OF ENTRIES
2
ITEM: BOX BOUNDS pp pp pp
0.0000000000000000e+00 1.0000000000000000e+02
0.0000000000000000e+00 1.0000000000000000e+02
0.0000000000000000e+00 1.0000000000000000e+03
ITEM: ENTRIES c_btype c_bondlen
1 0.978728 
1 1.16018 
ITEM: TIMESTEP
7000
ITEM: NUMBER OF ENTRIES
2
ITEM: BOX BOUNDS pp pp pp
0.0000000000000000e+00 1.0000000000000000e+02
0.0000000000000000e+00 1.0000000000000000e+02
0.0000000000000000e+00 1.0000000000000000e+03
ITEM: ENTRIES c_btype c_bondlen
1 0.830272 
1 1.25117 
ITEM: TIMESTEP
7100
ITEM: NUMBER OF ENTRIES
2
ITEM: BOX BOUNDS pp pp pp
0.0000000000000000e+00 1.0000000000000000e+02
0.0000000000000000e+00 1.0000000000000000e+02
0.0000000000000000e+00 1.0000000000000000e+03
ITEM: ENTRIES c_btype c_bondlen
1 0.951956 
1 1.10494 
ITEM: TIMESTEP
7200
ITEM: NUMBER OF ENTRIES
2
ITEM: BOX BOUNDS pp pp pp
0.0000000000000000e+00 1.0000000000000000e+02
0.0000000000000000e+00 1.0000000000000000e+02
0.0000000000000000e+00 1.0000000000000000e+03
ITEM: ENTRIES c_btype c_bondlen
1 1.02126 
1 1.01631 
ITEM: TIMESTEP
7300
ITEM: NUMBER OF ENTRIES
2
ITEM: BOX BOUNDS pp pp pp
0.0000000000000000e+00 1.0000000000000000e+02
0.0000000000000000e+00 1.0000000000000000e+02
0.0000000000000000e+00 1.0000000000000000e+03
ITEM: ENTRIES c_btype c_bondlen
1 1.10547 
1 0.90588 
ITEM: TIMESTEP
7400
ITEM: NUMBER OF ENTRIES
2
ITEM: BOX BOUNDS pp pp pp
0.0000000000000000e+00 1.0000000000000000e+02
0.0000000000000000e+00 1.0000000000000000e+02
0.0000000000000000e+00 1.0000000000000000e+03
ITEM: ENTRIES c_btype c_bondlen
1 1.02973 
1 0.855517 
ITEM: TIMESTEP
7500
ITEM: NUMBER OF ENTRIES
2
ITEM: BOX BOUNDS pp pp pp
0.0000000000000000e+00 1.0000000000000000e+02
0.0000000000000000e+00 1.0000000000000000e+02
0.0000000000000000e+00 1.0000000000000000e+03
ITEM: ENTRIES c_btype c_bondlen
1 0.932254 
1 0.98689 
ITEM: TIMESTEP
7600
ITEM: NUMBER OF ENTRIES
2
ITEM: BOX BOUNDS pp pp pp
0.0000000000000000e+00 1.0000000000000000e+02
0.0000000000000000e+00 1.0000000000000000e+02
0.0000000000000000e+00 1.0000000000000000e+03
ITEM: ENTRIES c_btype c_bondlen
1 0.881604 
1 1.1961 
ITEM: TIMESTEP
7700
ITEM: NUMBER OF ENTRIES
2
ITEM: BOX BOUNDS pp pp pp
0.0000000000000000e+00 1.0000000000000000e+02
0.0000000000000000e+00 1.0000000000000000e+02
0.0000000000000000e+00 1.0000000000000000e+03
ITEM: ENTRIES c_btype c_bondlen
1 1.16782 
1 0.994119 
ITEM: TIMESTEP
7800
ITEM: NUMBER OF ENTRIES
2
ITEM: BOX BOUNDS pp pp pp
0.0000000000000000e+00 1.0000000000000000e+02
0.0000000000000000e+00 1.0000000000000000e+02
0.0000000000000000e+00 1.0000000000000000e+03
ITEM: ENTRIES c_btype c_bondlen
1 1.10903 
1 0.959393 
ITEM: TIMESTEP
7900
ITEM: NUMBER OF ENTRIES
2
ITEM: BOX BOUNDS pp pp pp
0.0000000000000000e+00 1.0000000000000000e+02
0.0000000000000000e+00 1.0000000000000000e+02
0.0000000000000000e+00 1.0000000000000000e+03
ITEM: ENTRIES c_btype c_bondlen
1 1.106 
1 1.10824 
ITEM: TIMESTEP
8000
ITEM: NUMBER OF ENTRIES
2
ITEM: BOX BOUNDS pp pp pp
0.0000000000000000e+00 1.0000000000000000e+02
0.0000000000000000e+00 1.0000000000000000e+02
0.0000000000000000e+00 1.0000000000000000e+03
ITEM: ENTRIES c_btype c_bondlen
1 0.975345 
1 0.883605 
ITEM: TIMESTEP
8100
ITEM: NUMBER OF ENTRIES
2
ITEM: BOX BOUNDS pp pp pp
0.0000000000000000e+00 1.0000000000000000e+02
0.0000000000000000e+00 1.0000000000000000e+02
0.0000000000000000e+00 1.0000000000000000e+03
ITEM: ENTRIES c_btype c_bondlen
1 1.01791 
1 1.11467 
ITEM: TIMESTEP
8200
ITEM: NUMBER OF ENTRIES
2
ITEM: BOX BOUNDS pp pp pp
0.0000000000000000e+00 1.0000000000000000e+02
0.0000000000000000e+00 1.0000000000000000e+02
0.0000000000000000e+00 1.0000000000000000e+03
ITEM: ENTRIES c_btype c_bondlen
1 1.06204 
1 1.20262 
ITEM: TIMESTEP
8300
ITEM: NUMBER OF ENTRIES
2
ITEM: BOX BOUNDS pp pp pp
0.0000000000000000e+00 1.0000000000000000e+02
0.0000000000000000e+00 1.0000000000000000e+02
0.0000000000000000e+00 1.0000000000000000e+03
ITEM: ENTRIES c_btype c_bondlen
1 0.956853 
1 1.01206 
ITEM: TIMESTEP
8400
ITEM: NUMBER OF ENTRIES
2
ITEM: BOX BOUNDS pp pp pp
0.0000000000000000e+00 1.0000000000000000e+02
0.0000000000000000e+00 1.0000000000000000e+02
0.0000000000000000e+00 1.0000000000000000e+03
ITEM: ENTRIES c_btype c_bondlen
1 1.26044 
1 1.073 
ITEM: TIMESTEP
8500
ITEM: NUMBER OF ENTRIES
2
ITEM: BOX BOUNDS pp pp pp
0.0000000000000000e+00 1.0000000000000000e+02
0.0000000000000000e+00 1.0000000000000000e+02
0.0000000000000000e+00 1.0000000000000000e+03
ITEM: ENTRIES c_btype c_bondlen
1 1.07853 
1 0.825317 
ITEM: TIMESTEP
8600
ITEM: NUMBER OF ENTRIES
2
ITEM: BOX BOUNDS pp pp pp
0.0000000000000000e+00 1.0000000000000000e+02
0.0000000000000000e+00 1.0000000000000000e+02
0.0000000000000000e+00 1.0000000000000000e+03
ITEM: ENTRIES c_btype c_bondlen
1 1.00165 
1 1.04526 
ITEM: TIMESTEP
8700
ITEM: NUMBER OF ENTRIES
2
ITEM: BOX BOUNDS pp pp pp
0.0000000000000000e+00 1.0000000000000000e+02
0.0000000000000000e+00 1.0000000000000000e+02
0.0000000000000000e+00 1.0000000000000000e+03
ITEM: ENTRIES c_btype c_bondlen
1 1.01172 
1 1.14085 
ITEM: TIMESTEP
8800
ITEM: NUMBER OF ENTRIES
2
ITEM: BOX BOUNDS pp pp pp
0.0000000000000000e+00 1.0000000000000000e+02
0.0000000000000000e+00 1.0000000000000000e+02
0.0000000000000000e+00 1.0000000000000000e+03
ITEM: ENTRIES c_btype c_bondlen
1 0.89085 
1 1.00682 
ITEM: TIMESTEP
8900
ITEM: NUMBER OF ENTRIES
2
ITEM: BOX BOUNDS pp pp pp
0.0000000000000000e+00 1.0000000000000000e+02
0.0000000000000000e+00 1.0000000000000000e+02
0.0000000000000000e+00 1.0000000000000000e+03
ITEM: ENTRIES c_btype c_bondlen
1 1.18536 
1 0.950441 
ITEM: TIMESTEP
9000
ITEM: NUMBER OF ENTRIES
2
ITEM: BOX BOUNDS pp pp pp
0.0000000000000000e+00 1.0000000000000000e+02
0.0000000000000000e+00 1.0000000000000000e+02
0.0000000000000000e+00 1.0000000000000000e+03
ITEM: ENTRIES c_btype c_bondlen
1 1.06308 
1 0.923184 
ITEM: TIMESTEP
9100
ITEM: NUMBER OF ENTRIES
2
ITEM: BOX BOUNDS pp pp pp
0.0000000000000000e+00 1.0000000000000000e+02
0.0000000000000000e+00 1.0000000000000000e+02
0.0000000000000000e+00 1.0000000000000000e+03
ITEM: ENTRIES c_btype c_bondlen
1 1.12409 
1 1.10616 
ITEM: TIMESTEP
9200
ITEM: NUMBER OF ENTRIES
2
ITEM: BOX BOUNDS pp pp pp
0.0000000000000000e+00 1.0000000000000000e+02
0.0000000000000000e+00 1.0000000000000000e+02
0.0000000000000000e+00 1.0000000000000000e+03
ITEM: ENTRIES c_btype c_bondlen
1 1.02402 
1 0.999317 
ITEM: TIMESTEP
9300
ITEM: NUMBER OF ENTRIES
2
ITEM: BOX BOUNDS pp pp pp
0.0000000000000000e+00 1.0000000000000000e+02
0.0000000000000000e+00 1.0000000000000000e+02
0.0000000000000000e+00 1.0000000000000000e+03
ITEM: ENTRIES c_btype c_bondlen
1 0.939881 
1 1.0096 
ITEM: TIMESTEP
9400
ITEM: NUMBER OF ENTRIES
2
ITEM: BOX BOUNDS pp pp pp
0.0000000000000000e+00 1.0000000000000000e+02
0.0000000000000000e+00 1.0000000000000000e+02
0.0000000000000000e+00 1.0000000000000000e+03
ITEM: ENTRIES c_btype c_bondlen
1 0.995956 
1 1.06172 
ITEM: TIMESTEP
9500
ITEM: NUMBER OF ENTRIES
2
ITEM: BOX BOUNDS pp pp pp
0.0000000000000000e+00 1.0000000000000000e+02
0.0000000000000000e+00 1.0000000000000000e+02
0.0000000000000000e+00 1.0000000000000000e+03
ITEM: ENTRIES c_btype c_bondlen
1 0.836912 
1 1.10033 
ITEM: TIMESTEP
9600
ITEM: NUMBER OF ENTRIES
2
ITEM: BOX BOUNDS pp pp pp
0.0000000000000000e+00 1.0000000000000000e+02
0.0000000000000000e+00 1.0000000000000000e+02
0.0000000000000000e+00 1.0000000000000000e+03
ITEM: ENTRIES c_btype c_bondlen
1 1.08487 
1 1.14799 
ITEM: TIMESTEP
9700
ITEM: NUMBER OF ENTRIES
2
ITEM: BOX BOUNDS pp pp pp
0.0000000000000000e+00 1.0000000000000000e+02
0.0000000000000000e+00 1.0000000000000000e+02
0.0000000000000000e+00 1.0000000000000000e+03
ITEM: ENTRIES c_btype c_bondlen
1 1.14818 
1 1.06567 
ITEM: TIMESTEP
9800
ITEM: NUMBER OF ENTRIES
2
ITEM: BOX BOUNDS pp pp pp
0.0000000000000000e+00 1.0000000000000000e+02
0.0000000000000000e+00 1.0000000000000000e+02
0.0000000000000000e+00 1.0000000000000000e+03
ITEM: ENTRIES c_btype c_bondlen
1 0.889971 
1 1.15036 
ITEM: TIMESTEP
9900
ITEM: NUMBER OF ENTRIES
2
ITEM: BOX BOUNDS pp pp pp
0.0000000000000000e+00 1.0000000000000000e+02
0.0000000000000000e+00 1.0000000000000000e+02
0.0000000000000000e+00 1.0000000000000000e+03
ITEM: ENTRIES c_btype c_bondlen
1 1.08531 
1 1.13801 
ITEM: TIMESTEP
10000
ITEM: NUMBER OF ENTRIES
2
ITEM: BOX BOUNDS pp pp pp
0.0000000000000000e+00 1.0000000000000000e+02
0.0000000000000000e+00 1.0000000000000000e+02
0.0000000000000000e+00 1.0000000000000000e+03
ITEM: ENTRIES c_btype c_bondlen
1 0.99968 
1 1.0418 
ITEM: TIMESTEP
10100
ITEM: NUMBER OF ENTRIES
2
ITEM: BOX BOUNDS pp pp pp
0.0000000000000000e+00 1.0000000000000000e+02
0.0000000000000000e+00 1.0000000000000000e+02
0.0000000000000000e+00 1.0000000000000000e+03
ITEM: ENTRIES c_btype c_bondlen
1 1.10815 
1 1.06887 
ITEM: TIMESTEP
10200
ITEM: NUMBER OF ENTRIES
2
ITEM: BOX BOUNDS pp pp pp
0.0000000000000000e+00 1.0000000000000000e+02
0.0000000000000000e+00 1.0000000000000000e+02
0.0000000000000000e+00 1.0000000000000000e+03
ITEM: ENTRIES c_btype c_bondlen
1 0.871137 
1 0.934869 
ITEM: TIMESTEP
10300
ITEM: NUMBER OF ENTRIES
2
ITEM: BOX BOUNDS pp pp pp
0.0000000000000000e+00 1.0000000000000000e+02
0.0000000000000000e+00 1.0000000000000000e+02
0.0000000000000000e+00 1.0000000000000000e+03
ITEM: ENTRIES c_btype c_bondlen
1 1.02783 
1 1.08689 
ITEM: TIMESTEP
10400
ITEM: NUMBER OF ENTRIES
2
ITEM: BOX BOUNDS pp pp pp
0.0000000000000000e+00 1.0000000000000000e+02
0.0000000000000000e+00 1.0000000000000000e+02
0.0000000000000000e+00 1.0000000000000000e+03
ITEM: ENTRIES c_btype c_bondlen
1 0.79306 
1 0.985592 
ITEM: TIMESTEP
10500
ITEM: NUMBER OF ENTRIES
2
ITEM: BOX BOUNDS pp pp pp
0.0000000000000000e+00 1.0000000000000000e+02
0.0000000000000000e+00 1.0000000000000000e+02
0.0000000000000000e+00 1.0000000000000000e+03
ITEM: ENTRIES c_btype c_bondlen
1 0.958809 
1 1.03375 
ITEM: TIMESTEP
10600
ITEM: NUMBER OF ENTRIES
2
ITEM: BOX BOUNDS pp pp pp
0.0000000000000000e+00 1.0000000000000000e+02
0.0000000000000000e+00 1.0000000000000000e+02
0.0000000000000000e+00 1.0000000000000000e+03
ITEM: ENTRIES c_btype c_bondlen
1 1.05766 
1 1.21749 
ITEM: TIMESTEP
10700
ITEM: NUMBER OF ENTRIES
2
ITEM: BOX BOUNDS pp pp pp
0.0000000000000000e+00 1.0000000000000000e+02
0.0000000000000000e+00 1.0000000000000000e+02
0.0000000000000000e+00 1.0000000000000000e+03
ITEM: ENTRIES c_btype c_bondlen
1 1.07722 
1 0.828482 
ITEM: TIMESTEP
10800
ITEM: NUMBER OF ENTRIES
2
ITEM: BOX BOUNDS pp pp pp
0.0000000000000000e+00 1.0000000000000000e+02
0.0000000000000000e+00 1.0000000000000000e+02
0.0000000000000000e+00 1.0000000000000000e+03
ITEM: ENTRIES c_btype c_bondlen
1 1.13897 
1 0.94743 
ITEM: TIMESTEP
10900
ITEM: NUMBER OF ENTRIES
2
ITEM: BOX BOUNDS pp pp pp
0.0000000000000000e+00 1.0000000000000000e+02
0.0000000000000000e+00 1.0000000000000000e+02
0.0000000000000000e+00 1.0000000000000000e+03
ITEM: ENTRIES c_btype c_bondlen
1 1.09389 
1 1.11549 
ITEM: TIMESTEP
11000
ITEM: NUMBER OF ENTRIES
2
ITEM: BOX BOUNDS pp pp pp
0.0000000000000000e+00 1.0000000000000000e+02
0.0000000000000000e+00 1.0000000000000000e+02
0.0000000000000000e+00 1.0000000000000000e+03
ITEM: ENTRIES c_btype c_bondlen
1 1.04275 
1 1.04642 
ITEM: TIMESTEP
11100
ITEM: NUMBER OF ENTRIES
2
ITEM: BOX BOUNDS pp pp pp
0.0000000000000000e+00 1.0000000000000000e+02
0.0000000000000000e+00 1.0000000000000000e+02
0.0000000000000000e+00 1.0000000000000000e+03
ITEM: ENTRIES c_btype c_bondlen
1 1.03711 
1 1.16707 
ITEM: TIMESTEP
11200
ITEM: NUMBER OF ENTRIES
2
ITEM: BOX BOUNDS pp pp pp
0.0000000000000000e+00 1.0000000000000000e+02
0.0000000000000000e+00 1.0000000000000000e+02
0.0000000000000000e+00 1.0000000000000000e+03
ITEM: ENTRIES c_btype c_bondlen
1 0.928099 
1 1.01301 
ITEM: TIMESTEP
11300
ITEM: NUMBER OF ENTRIES
2
ITEM: BOX BOUNDS pp pp pp
0.0000000000000000e+00 1.0000000000000000e+02