ITEM: TIMESTEP
0
ITEM: NUMBER OF ATOMS
3
ITEM: BOX BOUNDS pp pp pp
0.0000000000000000e+00 1.0000000000000000e+02
0.0000000000000000e+00 1.0000000000000000e+02
0.0000000000000000e+00 1.0000000000000000e+03
ITEM: ATOMS id type x y z ix iy iz
1 1 0 0 0 0 0 0
2 2 0 0 1 0 0 0
3 1 0 0 2 0 0 0
ITEM: TIMESTEP
100
ITEM: NUMBER OF ATOMS
3
ITEM: BOX BOUNDS pp pp pp
0.0000000000000000e+00 1.0000000000000000e+02
0.0000000000000000e+00 1.0000000000000000e+02
0.0000000000000000e+00 1.0000000000000000e+03
ITEM: ATOMS id type x y z ix iy iz
1 1 0 0 0 0 0 0
2 2 0.000374847 0.000892969 0.999403 0 0 0
3 1 0.000233433 -0.000389553 1.99767 0 0 0
ITEM: TIMESTEP
200
ITEM: NUMBER OF ATOMS
3
ITEM: BOX BOUNDS pp pp pp
0.0000000000000000e+00 1.0000000000000000e+02
0.0000000000000000e+00 1.0000000000000000e+02
0.0000000000000000e+00 1.0000000000000000e+03
ITEM: ATOMS id type x y z ix iy iz
1 1 0 0 0 0 0 0
2 2 0.00250453 -6.38642e-06 0.999096 0 0 0
3 1 0.0027249 -0.000676327 1.99126 0 0 0
ITEM: TIMESTEP
300
ITEM: NUMBER OF ATOMS
3
ITEM: BOX BOUNDS pp pp pp
0.0000000000000000e+00 1.0000000000000000e+02
0.0000000000000000e+00 1.0000000000000000e+02
0.0000000000000000e+00 1.0000000000000000e+03
ITEM: ATOMS id type x y z ix iy iz
1 1 0 0 0 0 0 0
2 2 0.00563119 -0.00134148 0.996833 0 0 0
3 1 0.00397412 0.000143726 1.98104 0 0 0
ITEM: TIMESTEP
400
ITEM: NUMBER OF ATOMS
3
ITEM: BOX BOUNDS pp pp pp
0.0000000000000000e+00 1.0000000000000000e+02
0.0000000000000000e+00 1.0000000000000000e+02
0.0000000000000000e+00 1.0000000000000000e+03
ITEM: ATOMS id type x y z ix iy iz
1 1 0 0 0 0 0 0
2 2 0.0107566 -0.00405364 0.993401 0 0 0
3 1 0.0049782 0.00136658 1.96709 0 0 0
ITEM: TIMESTEP
500
ITEM: NUMBER OF ATOMS
3
ITEM: BOX BOUNDS pp pp pp
0.0000000000000000e+00 1.0000000000000000e+02
0.0000000000000000e+00 1.0000000000000000e+02
0.0000000000000000e+00 1.0000000000000000e+03
ITEM: ATOMS id type x y z ix iy iz
1 1 0 0 0 0 0 0
2 2 0.0170645 -0.00651832 0.990651 0 0 0
3 1 0.00615535 0.0020834 1.94967 0 0 0
ITEM: TIMESTEP
600
ITEM: NUMBER OF ATOMS
3
ITEM: BOX BOUNDS pp pp pp
0.0000000000000000e+00 1.0000000000000000e+02
0.0000000000000000e+00 1.0000000000000000e+02
0.0000000000000000e+00 1.0000000000000000e+03
ITEM: ATOMS id type x y z ix iy iz
1 1 0 0 0 0 0 0
2 2 0.0233087 -0.00591409 0.987615 0 0 0
3 1 0.00785707 0.00253813 1.92848 0 0 0
ITEM: TIMESTEP
700
ITEM: NUMBER OF ATOMS
3
ITEM: BOX BOUNDS pp pp pp
0.0000000000000000e+00 1.0000000000000000e+02
0.0000000000000000e+00 1.0000000000000000e+02
0.0000000000000000e+00 1.0000000000000000e+03
ITEM: ATOMS id type x y z ix iy iz
1 1 0 0 0 0 0 0
2 2 0.032192 -0.00533766 0.98706 0 0 0
3 1 0.0108146 0.00357642 1.90328 0 0 0
ITEM: TIMESTEP
800
ITEM: NUMBER OF ATOMS
3
ITEM: BOX BOUNDS pp pp pp
0.0000000000000000e+00 1.0000000000000000e+02
0.0000000000000000e+00 1.0000000000000000e+02
0.0000000000000000e+00 1.0000000000000000e+03
ITEM: ATOMS id type x y z ix iy iz
1 1 0 0 0 0 0 0
2 2 0.0419759 -0.00702007 0.986603 0 0 0
3 1 0.0126219 0.00418549 1.87504 0 0 0
ITEM: TIMESTEP
900
ITEM: NUMBER OF ATOMS
3
ITEM: BOX BOUNDS pp pp pp
0.0000000000000000e+00 1.0000000000000000e+02
0.0000000000000000e+00 1.0000000000000000e+02
0.0000000000000000e+00 1.0000000000000000e+03
ITEM: ATOMS id type x y z ix iy iz
1 1 0 0 0 0 0 0
2 2 0.0505291 -0.00903586 0.986124 0 0 0
3 1 0.0140365 0.00503864 1.84366 0 0 0
ITEM: TIMESTEP
1000
ITEM: NUMBER OF ATOMS
3
ITEM: BOX BOUNDS pp pp pp
0.0000000000000000e+00 1.0000000000000000e+02
0.0000000000000000e+00 1.0000000000000000e+02
0.0000000000000000e+00 1.0000000000000000e+03
ITEM: ATOMS id type x y z ix iy iz
1 1 0 0 0 0 0 0
2 2 0.0586626 -0.00980106 0.985998 0 0 0
3 1 0.014585 0.00791738 1.80982 0 0 0
ITEM: TIMESTEP
1100
ITEM: NUMBER OF ATOMS
3
ITEM: BOX BOUNDS pp pp pp
0.0000000000000000e+00 1.0000000000000000e+02
0.0000000000000000e+00 1.0000000000000000e+02
0.0000000000000000e+00 1.0000000000000000e+03
ITEM: ATOMS id type x y z ix iy iz
1 1 0 0 0 0 0 0
2 2 0.0656164 -0.00731918 0.984684 0 0 0
3 1 0.0147157 0.010593 1.7742 0 0 0
ITEM: TIMESTEP
1200
ITEM: NUMBER OF ATOMS
3
ITEM: BOX BOUNDS pp pp pp
0.0000000000000000e+00 1.0000000000000000e+02
0.0000000000000000e+00 1.0000000000000000e+02
0.0000000000000000e+00 1.0000000000000000e+03
ITEM: ATOMS id type x y z ix iy iz
1 1 0 0 0 0 0 0
2 2 0.0699781 -0.00493295 0.985274 0 0 0
3 1 0.0170134 0.0145505 1.73597 0 0 0
ITEM: TIMESTEP
1300
ITEM: NUMBER OF ATOMS
3
ITEM: BOX BOUNDS pp pp pp
0.0000000000000000e+00 1.0000000000000000e+02
0.0000000000000000e+00 1.0000000000000000e+02
0.0000000000000000e+00 1.0000000000000000e+03
ITEM: ATOMS id type x y z ix iy iz
1 1 0 0 0 0 0 0
2 2 0.0724246 -0.00382172 0.983433 0 0 0
3 1 0.0210241 0.0191567 1.69596 0 0 0
ITEM: TIMESTEP
1400
ITEM: NUMBER OF ATOMS
3
ITEM: BOX BOUNDS pp pp pp
0.0000000000000000e+00 1.0000000000000000e+02
0.0000000000000000e+00 1.0000000000000000e+02
0.0000000000000000e+00 1.0000000000000000e+03
ITEM: ATOMS id type x y z ix iy iz
1 1 0 0 0 0 0 0
2 2 0.0716772 -0.00217841 0.978655 0 0 0
3 1 0.0246209 0.0239604 1.65349 0 0 0
ITEM: TIMESTEP
1500
ITEM: NUMBER OF ATOMS
3
ITEM: BOX BOUNDS pp pp pp
0.0000000000000000e+00 1.0000000000000000e+02
0.0000000000000000e+00 1.0000000000000000e+02
0.0000000000000000e+00 1.0000000000000000e+03
ITEM: ATOMS id type x y z ix iy iz
1 1 0 0 0 0 0 0
2 2 0.0684071 -0.0022377 0.972671 0 0 0
3 1 0.0293779 0.0303968 1.60775 0 0 0
ITEM: TIMESTEP
1600
ITEM: NUMBER OF ATOMS
3
ITEM: BOX BOUNDS pp pp pp
0.0000000000000000e+00 1.0000000000000000e+02
0.0000000000000000e+00 1.0000000000000000e+02
0.0000000000000000e+00 1.0000000000000000e+03
ITEM: ATOMS id type x y z ix iy iz
1 1 0 0 0 0 0 0
2 2 0.0623528 -0.00239041 0.966697 0 0 0
3 1 0.0358455 0.0378627 1.55902 0 0 0
ITEM: TIMESTEP
1700
ITEM: NUMBER OF ATOMS
3
ITEM: BOX BOUNDS pp pp pp
0.0000000000000000e+00 1.0000000000000000e+02
0.0000000000000000e+00 1.0000000000000000e+02
0.0000000000000000e+00 1.0000000000000000e+03
ITEM: ATOMS id type x y z ix iy iz
1 1 0 0 0 0 0 0
2 2 0.0575023 -0.00109274 0.958467 0 0 0
3 1 0.0417967 0.0448527 1.5079 0 0 0
ITEM: TIMESTEP
1800
ITEM: NUMBER OF ATOMS
3
ITEM: BOX BOUNDS pp pp pp
0.0000000000000000e+00 1.0000000000000000e+02
0.0000000000000000e+00 1.0000000000000000e+02
0.0000000000000000e+00 1.0000000000000000e+03
ITEM: ATOMS id type x y z ix iy iz
1 1 0 0 0 0 0 0
2 2 0.051783 0.00130815 0.947569 0 0 0
3 1 0.0472893 0.0502223 1.45497 0 0 0
ITEM: TIMESTEP
1900
ITEM: NUMBER OF ATOMS
3
ITEM: BOX BOUNDS pp pp pp
0.0000000000000000e+00 1.0000000000000000e+02
0.0000000000000000e+00 1.0000000000000000e+02
0.0000000000000000e+00 1.0000000000000000e+03
ITEM: ATOMS id type x y z ix iy iz
1 1 0 0 0 0 0 0
2 2 0.043514 0.00487895 0.932546 0 0 0
3 1 0.0527366 0.0548624 1.39961 0 0 0
ITEM: TIMESTEP
2000
ITEM: NUMBER OF ATOMS
3
ITEM: BOX BOUNDS pp pp pp
0.0000000000000000e+00 1.0000000000000000e+02
0.0000000000000000e+00 1.0000000000000000e+02
0.0000000000000000e+00 1.0000000000000000e+03
ITEM: ATOMS id type x y z ix iy iz
1 1 0 0 0 0 0 0
2 2 0.0345251 0.0101558 0.913367 0 0 0
3 1 0.0581104 0.0606403 1.34175 0 0 0
ITEM: TIMESTEP
2100
ITEM: NUMBER OF ATOMS
3
ITEM: BOX BOUNDS pp pp pp
0.0000000000000000e+00 1.0000000000000000e+02
0.0000000000000000e+00 1.0000000000000000e+02
0.0000000000000000e+00 1.0000000000000000e+03
ITEM: ATOMS id type x y z ix iy iz
1 1 0 0 0 0 0 0
2 2 0.0245739 0.0164332 0.89146 0 0 0
3 1 0.0624573 0.0680688 1.27976 0 0 0
ITEM: TIMESTEP
2200
ITEM: NUMBER OF ATOMS
3
ITEM: BOX BOUNDS pp pp pp
0.0000000000000000e+00 1.0000000000000000e+02
0.0000000000000000e+00 1.0000000000000000e+02
0.0000000000000000e+00 1.0000000000000000e+03
ITEM: ATOMS id type x y z ix iy iz
1 1 0 0 0 0 0 0
2 2 0.0150642 0.0209141 0.865831 0 0 0
3 1 0.0674657 0.0758589 1.21821 0 0 0
ITEM: TIMESTEP
2300
ITEM: NUMBER OF ATOMS
3
ITEM: BOX BOUNDS pp pp pp
0.0000000000000000e+00 1.0000000000000000e+02
0.0000000000000000e+00 1.0000000000000000e+02
0.0000000000000000e+00 1.0000000000000000e+03
ITEM: ATOMS id type x y z ix iy iz
1 1 0 0 0 0 0 0
2 2 0.00636198 0.024432 0.836481 0 0 0
3 1 0.0725634 0.0830028 1.15726 0 0 0
ITEM: TIMESTEP
2400
ITEM: NUMBER OF ATOMS
3
ITEM: BOX BOUNDS pp pp pp
0.0000000000000000e+00 1.0000000000000000e+02
0.0000000000000000e+00 1.0000000000000000e+02
0.0000000000000000e+00 1.0000000000000000e+03
ITEM: ATOMS id type x y z ix iy iz
1 1 0 0 0 0 0 0
2 2 0.000247152 0.0291534 0.804309 0 0 0
3 1 0.0784489 0.0898305 1.098 0 0 0
ITEM: TIMESTEP
2500
ITEM: NUMBER OF ATOMS
3
ITEM: BOX BOUNDS pp pp pp
0.0000000000000000e+00 1.0000000000000000e+02
0.0000000000000000e+00 1.0000000000000000e+02
0.0000000000000000e+00 1.0000000000000000e+03
ITEM: ATOMS id type x y z ix iy iz
1 1 0 0 0 0 0 0
3 1 0.0834868 0.0952774 1.03838 0 0 0
2 2 99.9978 0.035688 0.768054 -1 0 0
ITEM: TIMESTEP
2600
ITEM: NUMBER OF ATOMS
3
ITEM: BOX BOUNDS pp pp pp
0.0000000000000000e+00 1.0000000000000000e+02
0.0000000000000000e+00 1.0000000000000000e+02
0.0000000000000000e+00 1.0000000000000000e+03
ITEM: ATOMS id type x y z ix iy iz
1 1 0 0 0 0 0 0
3 1 0.087036 0.0983391 0.979424 0 0 0
2 2 99.9986 0.0457341 0.728382 -1 0 0
ITEM: TIMESTEP
2700
ITEM: NUMBER OF ATOMS
3
ITEM: BOX BOUNDS pp pp pp
0.0000000000000000e+00 1.0000000000000000e+02
0.0000000000000000e+00 1.0000000000000000e+02
0.0000000000000000e+00 1.0000000000000000e+03
ITEM: ATOMS id type x y z ix iy iz
1 1 0 0 0 0 0 0
3 1 0.0881198 0.0990328 0.923338 0 0 0
2 2 100.005 0.0581028 0.68509 -1 0 0
ITEM: TIMESTEP
2800
ITEM: NUMBER OF ATOMS
3
ITEM: BOX BOUNDS pp pp pp
0.0000000000000000e+00 1.0000000000000000e+02
0.0000000000000000e+00 1.0000000000000000e+02
0.0000000000000000e+00 1.0000000000000000e+03
ITEM: ATOMS id type x y z ix iy iz
1 1 0 0 0 0 0 0
3 1 0.0869537 0.0988315 0.868757 0 0 0
2 2 100.018 0.069736 0.638252 -1 0 0
ITEM: TIMESTEP
2900
ITEM: NUMBER OF ATOMS
3
ITEM: BOX BOUNDS pp pp pp
0.0000000000000000e+00 1.0000000000000000e+02
0.0000000000000000e+00 1.0000000000000000e+02
0.0000000000000000e+00 1.0000000000000000e+03
ITEM: ATOMS id type x y z ix iy iz
1 1 0 0 0 0 0 0
3 1 0.0857168 0.0968849 0.814881 0 0 0
2 2 100.036 0.0800385 0.586708 -1 0 0
ITEM: TIMESTEP
3000
ITEM: NUMBER OF ATOMS
3
ITEM: BOX BOUNDS pp pp pp
0.0000000000000000e+00 1.0000000000000000e+02
0.0000000000000000e+00 1.0000000000000000e+02
0.0000000000000000e+00 1.0000000000000000e+03
ITEM: ATOMS id type x y z ix iy iz
1 1 0 0 0 0 0 0
3 1 0.0831461 0.0946161 0.762969 0 0 0
2 2 100.057 0.0896296 0.531846 -1 0 0
ITEM: TIMESTEP
3100
ITEM: NUMBER OF ATOMS
3
ITEM: BOX BOUNDS pp pp pp
0.0000000000000000e+00 1.0000000000000000e+02
0.0000000000000000e+00 1.0000000000000000e+02
0.0000000000000000e+00 1.0000000000000000e+03
ITEM: ATOMS id type x y z ix iy iz
1 1 0 0 0 0 0 0
3 1 0.0802274 0.0943554 0.711356 0 0 0
2 2 100.079 0.0976613 0.474706 -1 0 0
ITEM: TIMESTEP
3200
ITEM: NUMBER OF ATOMS
3
ITEM: BOX BOUNDS pp pp pp
0.0000000000000000e+00 1.0000000000000000e+02
0.0000000000000000e+00 1.0000000000000000e+02
0.0000000000000000e+00 1.0000000000000000e+03
ITEM: ATOMS id type x y z ix iy iz
1 1 0 0 0 0 0 0
3 1 0.0778601 0.0947059 0.660186 0 0 0
2 2 100.097 0.10331 0.416818 -1 0 0
ITEM: TIMESTEP
3300
ITEM: NUMBER OF ATOMS
3
ITEM: BOX BOUNDS pp pp pp
0.0000000000000000e+00 1.0000000000000000e+02
0.0000000000000000e+00 1.0000000000000000e+02
0.0000000000000000e+00 1.0000000000000000e+03
ITEM: ATOMS id type x y z ix iy iz
1 1 0 0 0 0 0 0
3 1 0.0792227 0.0980723 0.60983 0 0 0
2 2 100.109 0.104758 0.362145 -1 0 0
ITEM: TIMESTEP
3400
ITEM: NUMBER OF ATOMS
3
ITEM: BOX BOUNDS pp pp pp
0.0000000000000000e+00 1.0000000000000000e+02
0.0000000000000000e+00 1.0000000000000000e+02
0.0000000000000000e+00 1.0000000000000000e+03
ITEM: ATOMS id type x y z ix iy iz
1 1 0 0 0 0 0 0
3 1 0.0844129 0.103612 0.559112 0 0 0
2 2 100.115 0.101709 0.30993 -1 0 0
ITEM: TIMESTEP
3500
ITEM: NUMBER OF ATOMS
3
ITEM: BOX BOUNDS pp pp pp
0.0000000000000000e+00 1.0000000000000000e+02
0.0000000000000000e+00 1.0000000000000000e+02
0.0000000000000000e+00 1.0000000000000000e+03
ITEM: ATOMS id type x y z ix iy iz
1 1 0 0 0 0 0 0
3 1 0.0916133 0.110536 0.508366 0 0 0
2 2 100.111 0.0926864 0.258008 -1 0 0
ITEM: TIMESTEP
3600
ITEM: NUMBER OF ATOMS
3
ITEM: BOX BOUNDS pp pp pp
0.0000000000000000e+00 1.0000000000000000e+02
0.0000000000000000e+00 1.0000000000000000e+02
0.0000000000000000e+00 1.0000000000000000e+03
ITEM: ATOMS id type x y z ix iy iz
1 1 0 0 0 0 0 0
3 1 0.102035 0.11845 0.457369 0 0 0
2 2 100.101 0.0795793 0.20974 -1 0 0
ITEM: TIMESTEP
3700
ITEM: NUMBER OF ATOMS
3
ITEM: BOX BOUNDS pp pp pp
0.0000000000000000e+00 1.0000000000000000e+02
0.0000000000000000e+00 1.0000000000000000e+02
0.0000000000000000e+00 1.0000000000000000e+03
ITEM: ATOMS id type x y z ix iy iz
1 1 0 0 0 0 0 0
3 1 0.113907 0.126807 0.405915 0 0 0
2 2 100.087 0.0642377 0.163479 -1 0 0
ITEM: TIMESTEP
3800
ITEM: NUMBER OF ATOMS
3
ITEM: BOX BOUNDS pp pp pp
0.0000000000000000e+00 1.0000000000000000e+02
0.0000000000000000e+00 1.0000000000000000e+02
0.0000000000000000e+00 1.0000000000000000e+03
ITEM: ATOMS id type x y z ix iy iz
1 1 0 0 0 0 0 0
3 1 0.127628 0.134497 0.352482 0 0 0
2 2 100.065 0.0455343 0.119411 -1 0 0
ITEM: TIMESTEP
3900
ITEM: NUMBER OF ATOMS
3
ITEM: BOX BOUNDS pp pp pp
0.0000000000000000e+00 1.0000000000000000e+02
0.0000000000000000e+00 1.0000000000000000e+02
0.0000000000000000e+00 1.0000000000000000e+03
ITEM: ATOMS id type x y z ix iy iz
1 1 0 0 0 0 0 0
3 1 0.143087 0.139882 0.298292 0 0 0
2 2 100.038 0.0271176 0.0771934 -1 0 0
ITEM: TIMESTEP
4000
ITEM: NUMBER OF ATOMS
3
ITEM: BOX BOUNDS pp pp pp
0.0000000000000000e+00 1.0000000000000000e+02
0.0000000000000000e+00 1.0000000000000000e+02
0.0000000000000000e+00 1.0000000000000000e+03
ITEM: ATOMS id type x y z ix iy iz
1 1 0 0 0 0 0 0
3 1 0.157781 0.145101 0.241948 0 0 0
2 2 100.009 0.0131546 0.0343996 -1 0 0
ITEM: TIMESTEP
4100
ITEM: NUMBER OF ATOMS
3
ITEM: BOX BOUNDS pp pp pp
0.0000000000000000e+00 1.0000000000000000e+02
0.0000000000000000e+00 1.0000000000000000e+02
0.0000000000000000e+00 1.0000000000000000e+03
ITEM: ATOMS id type x y z ix iy iz
1 1 0 0 0 0 0 0
3 1 0.171878 0.150555 0.186538 0 0 0
2 2 100.01 0.0028845 0.00155672 -1 0 0
ITEM: TIMESTEP
4200
ITEM: NUMBER OF ATOMS
3
ITEM: BOX BOUNDS pp pp pp
0.0000000000000000e+00 1.0000000000000000e+02
0.0000000000000000e+00 1.0000000000000000e+02
0.0000000000000000e+00 1.0000000000000000e+03
ITEM: ATOMS id type x y z ix iy iz
1 1 0 0 0 0 0 0
3 1 0.187255 0.157273 0.128983 0 0 0
2 2 100.026 0.0203975 0.0412982 -1 0 0
ITEM: TIMESTEP
4300
ITEM: NUMBER OF ATOMS
3
ITEM: BOX BOUNDS pp pp pp
0.0000000000000000e+00 1.0000000000000000e+02
0.0000000000000000e+00 1.0000000000000000e+02
0.0000000000000000e+00 1.0000000000000000e+03
ITEM: ATOMS id type x y z ix iy iz
1 1 0 0 0 0 0 0
3 1 0.202352 0.163635 0.0737644 0 0 0
2 2 0.0528144 0.0551177 0.0630359 0 0 0
ITEM: TIMESTEP
4400
ITEM: NUMBER OF ATOMS
3
ITEM: BOX BOUNDS pp pp pp
0.0000000000000000e+00 1.0000000000000000e+02
0.0000000000000000e+00 1.0000000000000000e+02
0.0000000000000000e+00 1.0000000000000000e+03
ITEM: ATOMS id type x y z ix iy iz
1 1 0 0 0 0 0 0
3 1 0.216074 0.170961 0.0266062 0 0 0
2 2 0.0900438 0.0915515 0.0658649 0 0 0
ITEM: TIMESTEP
4500
ITEM: NUMBER OF ATOMS
3
ITEM: BOX BOUNDS pp pp pp
0.0000000000000000e+00 1.0000000000000000e+02
0.0000000000000000e+00 1.0000000000000000e+02
0.0000000000000000e+00 1.0000000000000000e+03
ITEM: ATOMS id type x y z ix iy iz
1 1 0 0 0 0 0 0
3 1 0.230969 0.18196 -0.0107807 0 0 0
2 2 0.130503 0.124482 0.0480504 0 0 0
ITEM: TIMESTEP
4600
ITEM: NUMBER OF ATOMS
3
ITEM: BOX BOUNDS pp pp pp
0.0000000000000000e+00 1.0000000000000000e+02
0.0000000000000000e+00 1.0000000000000000e+02
0.0000000000000000e+00 1.0000000000000000e+03
ITEM: ATOMS id type x y z ix iy iz
1 1 0 0 0 0 0 0
3 1 0.247479 0.198798 -0.0375926 0 0 0
2 2 0.169361 0.147233 0.0111624 0 0 0
ITEM: TIMESTEP
4700
ITEM: NUMBER OF ATOMS
3
ITEM: BOX BOUNDS pp pp pp
0.0000000000000000e+00 1.0000000000000000e+02
0.0000000000000000e+00 1.0000000000000000e+02
0.0000000000000000e+00 1.0000000000000000e+03
ITEM: ATOMS id type x y z ix iy iz
1 1 0 0 0 0 0 0
3 1 0.265908 0.216472 -0.0557934 0 0 0
2 2 0.203636 0.161144 -0.0409483 0 0 0
ITEM: TIMESTEP
4800
ITEM: NUMBER OF ATOMS
3
ITEM: BOX BOUNDS pp pp pp
0.0000000000000000e+00 1.0000000000000000e+02
0.0000000000000000e+00 1.0000000000000000e+02
0.0000000000000000e+00 1.0000000000000000e+03
ITEM: ATOMS id type x y z ix iy iz
1 1 0 0 0 0 0 0
3 1 0.286752 0.232949 -0.0729645 0 0 0
2 2 0.234977 0.173501 -0.0946066 0 0 0
ITEM: TIMESTEP
4900
ITEM: NUMBER OF ATOMS
3
ITEM: BOX BOUNDS pp pp pp
0.0000000000000000e+00 1.0000000000000000e+02
0.0000000000000000e+00 1.0000000000000000e+02
0.0000000000000000e+00 1.0000000000000000e+03
ITEM: ATOMS id type x y z ix iy iz
1 1 0 0 0 0 0 0
3 1 0.313854 0.247244 -0.101646 0 0 0
2 2 0.259609 0.189757 -0.128667 0 0 0
ITEM: TIMESTEP
5000
ITEM: NUMBER OF ATOMS
3
ITEM: BOX BOUNDS pp pp pp
0.0000000000000000e+00 1.0000000000000000e+02
0.0000000000000000e+00 1.0000000000000000e+02
0.0000000000000000e+00 1.0000000000000000e+03
ITEM: ATOMS id type x y z ix iy iz
1 1 0 0 0 0 0 0
3 1 0.346115 0.260526 -0.143447 0 0 0
2 2 0.276965 0.204085 -0.138826 0 0 0
ITEM: TIMESTEP
5100
ITEM: NUMBER OF ATOMS
3
ITEM: BOX BOUNDS pp pp pp
0.0000000000000000e+00 1.0000000000000000e+02
0.0000000000000000e+00 1.0000000000000000e+02
0.0000000000000000e+00 1.0000000000000000e+03
ITEM: ATOMS id type x y z ix iy iz
1 1 0 0 0 0 0 0
3 1 0.379872 0.273287 -0.188816 0 0 0
2 2 0.292278 0.21974 -0.136371 0 0 0
ITEM: TIMESTEP
5200
ITEM: NUMBER OF ATOMS
3
ITEM: BOX BOUNDS pp pp pp
0.0000000000000000e+00 1.0000000000000000e+02
0.0000000000000000e+00 1.0000000000000000e+02
0.0000000000000000e+00 1.0000000000000000e+03
ITEM: ATOMS id type x y z ix iy iz
1 1 0 0 0 0 0 0
3 1 0.414159 0.287424 -0.232223 0 0 0
2 2 0.302804 0.233277 -0.135737 0 0 0
ITEM: TIMESTEP
5300
ITEM: NUMBER OF ATOMS
3
ITEM: BOX BOUNDS pp pp pp
0.0000000000000000e+00 1.0000000000000000e+02
0.0000000000000000e+00 1.0000000000000000e+02
0.0000000000000000e+00 1.0000000000000000e+03
ITEM: ATOMS id type x y z ix iy iz
1 1 0 0 0 0 0 0
3 1 0.447903 0.30532 -0.271009 0 0 0
2 2 0.30917 0.238937 -0.142345 0 0 0
ITEM: TIMESTEP
5400
ITEM: NUMBER OF ATOMS
3
ITEM: BOX BOUNDS pp pp pp
0.0000000000000000e+00 1.0000000000000000e+02
0.0000000000000000e+00 1.0000000000000000e+02
0.0000000000000000e+00 1.0000000000000000e+03
ITEM: ATOMS id type x y z ix iy iz
1 1 0 0 0 0 0 0
3 1 0.480376 0.323562 -0.307092 0 0 0
2 2 0.314812 0.238369 -0.153711 0 0 0
ITEM: TIMESTEP
5500
ITEM: NUMBER OF ATOMS
3
ITEM: BOX BOUNDS pp pp pp
0.0000000000000000e+00 1.0000000000000000e+02
0.0000000000000000e+00 1.0000000000000000e+02
0.0000000000000000e+00 1.0000000000000000e+03
ITEM: ATOMS id type x y z ix iy iz
1 1 0 0 0 0 0 0
3 1 0.511756 0.343299 -0.340591 0 0 0
2 2 0.319682 0.233383 -0.17007 0 0 0
ITEM: TIMESTEP
5600
ITEM: NUMBER OF ATOMS
3
ITEM: BOX BOUNDS pp pp pp
0.0000000000000000e+00 1.0000000000000000e+02
0.0000000000000000e+00 1.0000000000000000e+02
0.0000000000000000e+00 1.0000000000000000e+03
ITEM: ATOMS id type x y z ix iy iz
1 1 0 0 0 0 0 0
3 1 0.543127 0.363525 -0.37302 0 0 0
2 2 0.32143 0.225101 -0.187004 0 0 0
ITEM: TIMESTEP
5700
ITEM: NUMBER OF ATOMS
3
ITEM: BOX BOUNDS pp pp pp
0.0000000000000000e+00 1.0000000000000000e+02
0.0000000000000000e+00 1.0000000000000000e+02
0.0000000000000000e+00 1.0000000000000000e+03
ITEM: ATOMS id type x y z ix iy iz
1 1 0 0 0 0 0 0
3 1 0.572648 0.382652 -0.403691 0 0 0
2 2 0.322853 0.213056 -0.205648 0 0 0
ITEM: TIMESTEP
5800
ITEM: NUMBER OF ATOMS
3
ITEM: BOX BOUNDS pp pp pp
0.0000000000000000e+00 1.0000000000000000e+02
0.0000000000000000e+00 1.0000000000000000e+02
0.0000000000000000e+00 1.0000000000000000e+03
ITEM: ATOMS id type x y z ix iy iz
1 1 0 0 0 0 0 0
3 1 0.601117 0.398845 -0.433355 0 0 0
2 2 0.324166 0.199097 -0.224786 0 0 0
ITEM: TIMESTEP
5900
ITEM: NUMBER OF ATOMS
3
ITEM: BOX BOUNDS pp pp pp
0.0000000000000000e+00 1.0000000000000000e+02
0.0000000000000000e+00 1.0000000000000000e+02
0.0000000000000000e+00 1.0000000000000000e+03
ITEM: ATOMS id type x y z ix iy iz
1 1 0 0 0 0 0 0
3 1 0.628024 0.413449 -0.462977 0 0 0
2 2 0.325662 0.185949 -0.243461 0 0 0
ITEM: TIMESTEP
6000
ITEM: NUMBER OF ATOMS
3
ITEM: BOX BOUNDS pp pp pp
0.0000000000000000e+00 1.0000000000000000e+02
0.0000000000000000e+00 1.0000000000000000e+02
0.0000000000000000e+00 1.0000000000000000e+03
ITEM: ATOMS id type x y z ix iy iz
1 1 0 0 0 0 0 0
3 1 0.656175 0.426943 -0.493482 0 0 0
2 2 0.327568 0.176181 -0.259262 0 0 0
ITEM: TIMESTEP
6100
ITEM: NUMBER OF ATOMS
3
ITEM: BOX BOUNDS pp pp pp
0.0000000000000000e+00 1.0000000000000000e+02
0.0000000000000000e+00 1.0000000000000000e+02
0.0000000000000000e+00 1.0000000000000000e+03
ITEM: ATOMS id type x y z ix iy iz
1 1 0 0 0 0 0 0
3 1 0.683593 0.437568 -0.52353 0 0 0
2 2 0.330107 0.169577 -0.27635 0 0 0
ITEM: TIMESTEP
6200
ITEM: NUMBER OF ATOMS
3
ITEM: BOX BOUNDS pp pp pp
0.0000000000000000e+00 1.0000000000000000e+02
0.0000000000000000e+00 1.0000000000000000e+02
0.0000000000000000e+00 1.0000000000000000e+03
ITEM: ATOMS id type x y z ix iy iz
1 1 0 0 0 0 0 0
3 1 0.709102 0.447333 -0.552457 0 0 0
2 2 0.332368 0.164879 -0.292819 0 0 0
ITEM: TIMESTEP
6300
ITEM: NUMBER OF ATOMS
3
ITEM: BOX BOUNDS pp pp pp
0.0000000000000000e+00 1.0000000000000000e+02
0.0000000000000000e+00 1.0000000000000000e+02
0.0000000000000000e+00 1.0000000000000000e+03
ITEM: ATOMS id type x y z ix iy iz
1 1 0 0 0 0 0 0
3 1 0.73155 0.454857 -0.580104 0 0 0
2 2 0.335065 0.163091 -0.306107 0 0 0
ITEM: TIMESTEP
6400
ITEM: NUMBER OF ATOMS
3
ITEM: BOX BOUNDS pp pp pp
0.0000000000000000e+00 1.0000000000000000e+02
0.0000000000000000e+00 1.0000000000000000e+02
0.0000000000000000e+00 1.0000000000000000e+03
ITEM: ATOMS id type x y z ix iy iz
1 1 0 0 0 0 0 0
3 1 0.753358 0.459787 999.395 0 0 -1
2 2 0.338495 0.163298 999.683 0 0 -1
ITEM: TIMESTEP
6500
ITEM: NUMBER OF ATOMS
3
ITEM: BOX BOUNDS pp pp pp
0.0000000000000000e+00 1.0000000000000000e+02
0.0000000000000000e+00 1.0000000000000000e+02
0.0000000000000000e+00 1.0000000000000000e+03
ITEM: ATOMS id type x y z ix iy iz
1 1 0 0 0 0 0 0
3 1 0.774442 0.464727 999.372 0 0 -1
2 2 0.342465 0.164087 999.673 0 0 -1
ITEM: TIMESTEP
6600
ITEM: NUMBER OF ATOMS
3
ITEM: BOX BOUNDS pp pp pp
0.0000000000000000e+00 1.0000000000000000e+02
0.0000000000000000e+00 1.0000000000000000e+02
0.0000000000000000e+00 1.0000000000000000e+03
ITEM: ATOMS id type x y z ix iy iz
1 1 0 0 0 0 0 0
3 1 0.794874 0.468961 999.346 0 0 -1
2 2 0.347004 0.166082 999.664 0 0 -1
ITEM: TIMESTEP
6700
ITEM: NUMBER OF ATOMS
3
ITEM: BOX BOUNDS pp pp pp
0.0000000000000000e+00 1.0000000000000000e+02
0.0000000000000000e+00 1.0000000000000000e+02
0.0000000000000000e+00 1.0000000000000000e+03
ITEM: ATOMS id type x y z ix iy iz
1 1 0 0 0 0 0 0
3 1 0.814947 0.471654 999.321 0 0 -1
2 2 0.352251 0.169548 999.654 0 0 -1
ITEM: TIMESTEP
6800
ITEM: NUMBER OF ATOMS
3
ITEM: BOX BOUNDS pp pp pp
0.0000000000000000e+00 1.0000000000000000e+02
0.0000000000000000e+00 1.0000000000000000e+02
0.0000000000000000e+00 1.0000000000000000e+03
ITEM: ATOMS id type x y z ix iy iz
1 1 0 0 0 0 0 0
3 1 0.832589 0.47459 999.296 0 0 -1
2 2 0.359565 0.175138 999.644 0 0 -1
ITEM: TIMESTEP
6900
ITEM: NUMBER OF ATOMS
3
ITEM: BOX BOUNDS pp pp pp
0.0000000000000000e+00 1.0000000000000000e+02
0.0000000000000000e+00 1.0000000000000000e+02
0.0000000000000000e+00 1.0000000000000000e+03
ITEM: ATOMS id type x y z ix iy iz
1 1 0 0 0 0 0 0
3 1 0.848891 0.476854 999.273 0 0 -1
2 2 0.366418 0.181953 999.634 0 0 -1
ITEM: TIMESTEP
7000
ITEM: NUMBER OF ATOMS
3
ITEM: BOX BOUNDS pp pp pp
0.0000000000000000e+00 1.0000000000000000e+02
0.0000000000000000e+00 1.0000000000000000e+02
0.0000000000000000e+00 1.0000000000000000e+03
ITEM: ATOMS id type x y z ix iy iz
1 1 0 0 0 0 0 0
3 1 0.861735 0.477068 999.251 0 0 -1
2 2 0.376611 0.189134 999.625 0 0 -1
ITEM: TIMESTEP
7100
ITEM: NUMBER OF ATOMS
3
ITEM: BOX BOUNDS pp pp pp
0.0000000000000000e+00 1.0000000000000000e+02
0.0000000000000000e+00 1.0000000000000000e+02
0.0000000000000000e+00 1.0000000000000000e+03
ITEM: ATOMS id type x y z ix iy iz
1 1 0 0 0 0 0 0
3 1 0.871197 0.477812 999.232 0 0 -1
2 2 0.390602 0.197762 999.616 0 0 -1
ITEM: TIMESTEP
7200
ITEM: NUMBER OF ATOMS
3
ITEM: BOX BOUNDS pp pp pp
0.0000000000000000e+00 1.0000000000000000e+02
0.0000000000000000e+00 1.0000000000000000e+02
0.0000000000000000e+00 1.0000000000000000e+03
ITEM: ATOMS id type x y z ix iy iz
1 1 0 0 0 0 0 0
3 1 0.877989 0.47749 999.217 0 0 -1
2 2 0.405153 0.205997 999.607 0 0 -1
ITEM: TIMESTEP
7300
ITEM: NUMBER OF ATOMS
3
ITEM: BOX BOUNDS pp pp pp
0.0000000000000000e+00 1.0000000000000000e+02
0.0000000000000000e+00 1.0000000000000000e+02
0.0000000000000000e+00 1.0000000000000000e+03
ITEM: ATOMS id type x y z ix iy iz
1 1 0 0 0 0 0 0
3 1 0.883318 0.474882 999.204 0 0 -1
2 2 0.420467 0.214508 999.6 0 0 -1
ITEM: TIMESTEP
7400
ITEM: NUMBER OF ATOMS
3
ITEM: BOX BOUNDS pp pp pp
0.0000000000000000e+00 1.0000000000000000e+02
0.0000000000000000e+00 1.0000000000000000e+02
0.0000000000000000e+00 1.0000000000000000e+03
ITEM: ATOMS id type x y z ix iy iz
1 1 0 0 0 0 0 0
3 1 0.888233 0.470996 999.193 0 0 -1
2 2 0.43726 0.226432 999.592 0 0 -1
ITEM: TIMESTEP
7500
ITEM: NUMBER OF ATOMS
3
ITEM: BOX BOUNDS pp pp pp
0.0000000000000000e+00 1.0000000000000000e+02
0.0000000000000000e+00 1.0000000000000000e+02
0.0000000000000000e+00 1.0000000000000000e+03
ITEM: ATOMS id type x y z ix iy iz
1 1 0 0 0 0 0 0
3 1 0.893512 0.464584 999.183 0 0 -1
2 2 0.454152 0.2389 999.584 0 0 -1
ITEM: TIMESTEP
7600
ITEM: NUMBER OF ATOMS
3
ITEM: BOX BOUNDS pp pp pp
0.0000000000000000e+00 1.0000000000000000e+02
0.0000000000000000e+00 1.0000000000000000e+02
0.0000000000000000e+00 1.0000000000000000e+03
ITEM: ATOMS id type x y z ix iy iz
1 1 0 0 0 0 0 0
3 1 0.897949 0.45646 999.173 0 0 -1
2 2 0.471246 0.248739 999.577 0 0 -1
ITEM: TIMESTEP
7700
ITEM: NUMBER OF ATOMS
3
ITEM: BOX BOUNDS pp pp pp
0.0000000000000000e+00 1.0000000000000000e+02
0.0000000000000000e+00 1.0000000000000000e+02
0.0000000000000000e+00 1.0000000000000000e+03
ITEM: ATOMS id type x y z ix iy iz
1 1 0 0 0 0 0 0
3 1 0.901126 0.447158 999.163 0 0 -1
2 2 0.490538 0.260863 999.57 0 0 -1
ITEM: TIMESTEP
7800
ITEM: NUMBER OF ATOMS
3
ITEM: BOX BOUNDS pp pp pp
0.0000000000000000e+00 1.0000000000000000e+02
0.0000000000000000e+00 1.0000000000000000e+02
0.0000000000000000e+00 1.0000000000000000e+03
ITEM: ATOMS id type x y z ix iy iz
1 1 0 0 0 0 0 0
3 1 0.901257 0.435232 999.154 0 0 -1
2 2 0.510847 0.274011 999.562 0 0 -1
ITEM: TIMESTEP
7900
ITEM: NUMBER OF ATOMS
3
ITEM: BOX BOUNDS pp pp pp
0.0000000000000000e+00 1.0000000000000000e+02
0.0000000000000000e+00 1.0000000000000000e+02
0.0000000000000000e+00 1.0000000000000000e+03
ITEM: ATOMS id type x y z ix iy iz
1 1 0 0 0 0 0 0
3 1 0.897688 0.423832 999.148 0 0 -1
2 2 0.527469 0.285877 999.553 0 0 -1
ITEM: TIMESTEP
8000
ITEM: NUMBER OF ATOMS
3
ITEM: BOX BOUNDS pp pp pp
0.0000000000000000e+00 1.0000000000000000e+02
0.0000000000000000e+00 1.0000000000000000e+02
0.0000000000000000e+00 1.0000000000000000e+03
ITEM: ATOMS id type x y z ix iy iz
1 1 0 0 0 0 0 0
3 1 0.891046 0.412308 999.148 0 0 -1
2 2 0.543379 0.295871 999.545 0 0 -1
ITEM: TIMESTEP
8100
ITEM: NUMBER OF ATOMS
3
ITEM: BOX BOUNDS pp pp pp
0.0000000000000000e+00 1.0000000000000000e+02
0.0000000000000000e+00 1.0000000000000000e+02
0.0000000000000000e+00 1.0000000000000000e+03
ITEM: ATOMS id type x y z ix iy iz
1 1 0 0 0 0 0 0
3 1 0.886295 0.401905 999.149 0 0 -1
2 2 0.557516 0.304617 999.539 0 0 -1
ITEM: TIMESTEP
8200
ITEM: NUMBER OF ATOMS
3
ITEM: BOX BOUNDS pp pp pp
0.0000000000000000e+00 1.0000000000000000e+02
0.0000000000000000e+00 1.0000000000000000e+02
0.0000000000000000e+00 1.0000000000000000e+03
ITEM: ATOMS id type x y z ix iy iz
1 1 0 0 0 0 0 0
3 1 0.880915 0.392236 999.151 0 0 -1
2 2 0.568872 0.313154 999.531 0 0 -1
ITEM: TIMESTEP
8300
ITEM: NUMBER OF ATOMS
3
ITEM: BOX BOUNDS pp pp pp
0.0000000000000000e+00 1.0000000000000000e+02
0.0000000000000000e+00 1.0000000000000000e+02
0.0000000000000000e+00 1.0000000000000000e+03
ITEM: ATOMS id type x y z ix iy iz
1 1 0 0 0 0 0 0
3 1 0.875447 0.38474 999.153 0 0 -1
2 2 0.57721 0.320219 999.526 0 0 -1
ITEM: TIMESTEP
8400
ITEM: NUMBER OF ATOMS
3
ITEM: BOX BOUNDS pp pp pp
0.0000000000000000e+00 1.0000000000000000e+02
0.0000000000000000e+00 1.0000000000000000e+02
0.0000000000000000e+00 1.0000000000000000e+03
ITEM: ATOMS id type x y z ix iy iz
1 1 0 0 0 0 0 0
3 1 0.870867 0.378984 999.158 0 0 -1
2 2 0.582593 0.323812 999.522 0 0 -1
ITEM: TIMESTEP
8500
ITEM: NUMBER OF ATOMS
3
ITEM: BOX BOUNDS pp pp pp
0.0000000000000000e+00 1.0000000000000000e+02
0.0000000000000000e+00 1.0000000000000000e+02
0.0000000000000000e+00 1.0000000000000000e+03
ITEM: ATOMS id type x y z ix iy iz
1 1 0 0 0 0 0 0
3 1 0.865286 0.37559 999.165 0 0 -1
2 2 0.585805 0.325303 999.517 0 0 -1
ITEM: TIMESTEP
8600
ITEM: NUMBER OF ATOMS
3
ITEM: BOX BOUNDS pp pp pp
0.0000000000000000e+00 1.0000000000000000e+02
0.0000000000000000e+00 1.0000000000000000e+02
0.0000000000000000e+00 1.0000000000000000e+03
ITEM: ATOMS id type x y z ix iy iz
1 1 0 0 0 0 0 0
3 1 0.860767 0.372448 999.174 0 0 -1
2 2 0.58364 0.322483 999.514 0 0 -1
ITEM: TIMESTEP
8700
ITEM: NUMBER OF ATOMS
3
ITEM: BOX BOUNDS pp pp pp
0.0000000000000000e+00 1.0000000000000000e+02
0.0000000000000000e+00 1.0000000000000000e+02
0.0000000000000000e+00 1.0000000000000000e+03
ITEM: ATOMS id type x y z ix iy iz
1 1 0 0 0 0 0 0
3 1 0.856682 0.371462 999.185 0 0 -1
2 2 0.577044 0.315153 999.512 0 0 -1
ITEM: TIMESTEP
8800
ITEM: NUMBER OF ATOMS
3
ITEM: BOX BOUNDS pp pp pp
0.0000000000000000e+00 1.0000000000000000e+02
0.0000000000000000e+00 1.0000000000000000e+02
0.0000000000000000e+00 1.0000000000000000e+03
ITEM: ATOMS id type x y z ix iy iz
1 1 0 0 0 0 0 0
3 1 0.852392 0.370788 999.198 0 0 -1
2 2 0.565078 0.300878 999.51 0 0 -1
ITEM: TIMESTEP
8900
ITEM: NUMBER OF ATOMS
3
ITEM: BOX BOUNDS pp pp pp
0.0000000000000000e+00 1.0000000000000000e+02
0.0000000000000000e+00 1.0000000000000000e+02
0.0000000000000000e+00 1.0000000000000000e+03