ITEM: TIMESTEP
0
ITEM: NUMBER OF ATOMS
3
ITEM: BOX BOUNDS pp pp pp
0.0000000000000000e+00 1.0000000000000000e+02
0.0000000000000000e+00 1.0000000000000000e+02
0.0000000000000000e+00 1.0000000000000000e+03
ITEM: ATOMS id type x y z ix iy iz
1 1 0 0 0 0 0 0
2 2 0 0 1 0 0 0
3 1 0 0 2 0 0 0
ITEM: TIMESTEP
5
ITEM: NUMBER OF ATOMS
3
ITEM: BOX BOUNDS pp pp pp
0.0000000000000000e+00 1.0000000000000000e+02
0.0000000000000000e+00 1.0000000000000000e+02
0.0000000000000000e+00 1.0000000000000000e+03
ITEM: ATOMS id type x y z ix iy iz
1 1 0 0 0 0 0 0
2 2 -6.44783e-07 -3.57998e-07 1.00001 0 0 0
3 1 1.4566e-06 -1.74092e-06 2 0 0 0
ITEM: TIMESTEP
10
ITEM: NUMBER OF ATOMS
3
ITEM: BOX BOUNDS pp pp pp
0.0000000000000000e+00 1.0000000000000000e+02
0.0000000000000000e+00 1.0000000000000000e+02
0.0000000000000000e+00 1.0000000000000000e+03
ITEM: ATOMS id type x y z ix iy iz
1 1 0 0 0 0 0 0
2 2 -4.14295e-06 -3.31797e-06 1.00001 0 0 0
3 1 1.35198e-06 -2.97181e-06 2 0 0 0
ITEM: TIMESTEP
15
ITEM: NUMBER OF ATOMS
3
ITEM: BOX BOUNDS pp pp pp
0.0000000000000000e+00 1.0000000000000000e+02
0.0000000000000000e+00 1.0000000000000000e+02
0.0000000000000000e+00 1.0000000000000000e+03
ITEM: ATOMS id type x y z ix iy iz
1 1 0 0 0 0 0 0
2 2 -4.67907e-06 1.59304e-06 0.999996 0 0 0
3 1 -5.69569e-06 -4.24941e-06 2.00001 0 0 0
ITEM: TIMESTEP
20
ITEM: NUMBER OF ATOMS
3
ITEM: BOX BOUNDS pp pp pp
0.0000000000000000e+00 1.0000000000000000e+02
0.0000000000000000e+00 1.0000000000000000e+02
0.0000000000000000e+00 1.0000000000000000e+03
ITEM: ATOMS id type x y z ix iy iz
1 1 0 0 0 0 0 0
2 2 -5.44706e-06 -4.22223e-06 0.999974 0 0 0
3 1 -2.32641e-05 -1.57788e-05 2.00001 0 0 0
ITEM: TIMESTEP
25
ITEM: NUMBER OF ATOMS
3
ITEM: BOX BOUNDS pp pp pp
0.0000000000000000e+00 1.0000000000000000e+02
0.0000000000000000e+00 1.0000000000000000e+02
0.0000000000000000e+00 1.0000000000000000e+03
ITEM: ATOMS id type x y z ix iy iz
1 1 0 0 0 0 0 0
2 2 -1.3486e-05 -8.06304e-06 0.999938 0 0 0
3 1 -5.14923e-05 -2.01362e-05 2.00002 0 0 0
ITEM: TIMESTEP
30
ITEM: NUMBER OF ATOMS
3
ITEM: BOX BOUNDS pp pp pp
0.0000000000000000e+00 1.0000000000000000e+02
0.0000000000000000e+00 1.0000000000000000e+02
0.0000000000000000e+00 1.0000000000000000e+03
ITEM: ATOMS id type x y z ix iy iz
1 1 0 0 0 0 0 0
2 2 -2.62066e-05 -1.79159e-05 0.999902 0 0 0
3 1 -7.53528e-05 -1.22314e-05 2.00003 0 0 0
ITEM: TIMESTEP
35
ITEM: NUMBER OF ATOMS
3
ITEM: BOX BOUNDS pp pp pp
0.0000000000000000e+00 1.0000000000000000e+02
0.0000000000000000e+00 1.0000000000000000e+02
0.0000000000000000e+00 1.0000000000000000e+03
ITEM: ATOMS id type x y z ix iy iz
1 1 0 0 0 0 0 0
2 2 -4.4525e-05 -2.32454e-05 0.999862 0 0 0
3 1 -9.10254e-05 3.13674e-06 2.00004 0 0 0
ITEM: TIMESTEP
40
ITEM: NUMBER OF ATOMS
3
ITEM: BOX BOUNDS pp pp pp
0.0000000000000000e+00 1.0000000000000000e+02
0.0000000000000000e+00 1.0000000000000000e+02
0.0000000000000000e+00 1.0000000000000000e+03
ITEM: ATOMS id type x y z ix iy iz
1 1 0 0 0 0 0 0
2 2 -7.19195e-05 -3.44456e-05 0.999813 0 0 0
3 1 -0.000113056 1.61334e-05 2.00004 0 0 0
ITEM: TIMESTEP
45
ITEM: NUMBER OF ATOMS
3
ITEM: BOX BOUNDS pp pp pp
0.0000000000000000e+00 1.0000000000000000e+02
0.0000000000000000e+00 1.0000000000000000e+02
0.0000000000000000e+00 1.0000000000000000e+03
ITEM: ATOMS id type x y z ix iy iz
1 1 0 0 0 0 0 0
2 2 -0.000104238 -5.22549e-05 0.999775 0 0 0
3 1 -0.00014234 2.20525e-05 2.00005 0 0 0
ITEM: TIMESTEP
50
ITEM: NUMBER OF ATOMS
3
ITEM: BOX BOUNDS pp pp pp
0.0000000000000000e+00 1.0000000000000000e+02
0.0000000000000000e+00 1.0000000000000000e+02
0.0000000000000000e+00 1.0000000000000000e+03
ITEM: ATOMS id type x y z ix iy iz
1 1 0 0 0 0 0 0
2 2 -0.0001399 -7.64849e-05 0.999739 0 0 0
3 1 -0.000176763 2.44771e-05 2.00004 0 0 0
ITEM: TIMESTEP
55
ITEM: NUMBER OF ATOMS
3
ITEM: BOX BOUNDS pp pp pp
0.0000000000000000e+00 1.0000000000000000e+02
0.0000000000000000e+00 1.0000000000000000e+02
0.0000000000000000e+00 1.0000000000000000e+03
ITEM: ATOMS id type x y z ix iy iz
1 1 0 0 0 0 0 0
2 2 -0.000169997 -9.71516e-05 0.999693 0 0 0
3 1 -0.00020606 2.77181e-05 2.00004 0 0 0
ITEM: TIMESTEP
60
ITEM: NUMBER OF ATOMS
3
ITEM: BOX BOUNDS pp pp pp
0.0000000000000000e+00 1.0000000000000000e+02
0.0000000000000000e+00 1.0000000000000000e+02
0.0000000000000000e+00 1.0000000000000000e+03
ITEM: ATOMS id type x y z ix iy iz
1 1 0 0 0 0 0 0
2 2 -0.000190718 -0.000112978 0.999645 0 0 0
3 1 -0.000228168 4.03749e-05 2.00004 0 0 0
ITEM: TIMESTEP
65
ITEM: NUMBER OF ATOMS
3
ITEM: BOX BOUNDS pp pp pp
0.0000000000000000e+00 1.0000000000000000e+02
0.0000000000000000e+00 1.0000000000000000e+02
0.0000000000000000e+00 1.0000000000000000e+03
ITEM: ATOMS id type x y z ix iy iz
1 1 0 0 0 0 0 0
2 2 -0.000216336 -0.000130449 0.999598 0 0 0
3 1 -0.000239741 5.60272e-05 2.00004 0 0 0
ITEM: TIMESTEP
70
ITEM: NUMBER OF ATOMS
3
ITEM: BOX BOUNDS pp pp pp
0.0000000000000000e+00 1.0000000000000000e+02
0.0000000000000000e+00 1.0000000000000000e+02
0.0000000000000000e+00 1.0000000000000000e+03
ITEM: ATOMS id type x y z ix iy iz
1 1 0 0 0 0 0 0
2 2 -0.000247767 -0.000146172 0.999557 0 0 0
3 1 -0.000249332 6.99044e-05 2.00005 0 0 0
ITEM: TIMESTEP
75
ITEM: NUMBER OF ATOMS
3
ITEM: BOX BOUNDS pp pp pp
0.0000000000000000e+00 1.0000000000000000e+02
0.0000000000000000e+00 1.0000000000000000e+02
0.0000000000000000e+00 1.0000000000000000e+03
ITEM: ATOMS id type x y z ix iy iz
1 1 0 0 0 0 0 0
2 2 -0.000285591 -0.000168925 0.999515 0 0 0
3 1 -0.000269134 7.86539e-05 2.00005 0 0 0
ITEM: TIMESTEP
80
ITEM: NUMBER OF ATOMS
3
ITEM: BOX BOUNDS pp pp pp
0.0000000000000000e+00 1.0000000000000000e+02
0.0000000000000000e+00 1.0000000000000000e+02
0.0000000000000000e+00 1.0000000000000000e+03
ITEM: ATOMS id type x y z ix iy iz
1 1 0 0 0 0 0 0
2 2 -0.000320608 -0.000199265 0.999476 0 0 0
3 1 -0.000291601 9.01448e-05 2.00005 0 0 0
ITEM: TIMESTEP
85
ITEM: NUMBER OF ATOMS
3
ITEM: BOX BOUNDS pp pp pp
0.0000000000000000e+00 1.0000000000000000e+02
0.0000000000000000e+00 1.0000000000000000e+02
0.0000000000000000e+00 1.0000000000000000e+03
ITEM: ATOMS id type x y z ix iy iz
1 1 0 0 0 0 0 0
2 2 -0.000355883 -0.00022567 0.99945 0 0 0
3 1 -0.000315584 9.64183e-05 2.00004 0 0 0
ITEM: TIMESTEP
90
ITEM: NUMBER OF ATOMS
3
ITEM: BOX BOUNDS pp pp pp
0.0000000000000000e+00 1.0000000000000000e+02
0.0000000000000000e+00 1.0000000000000000e+02
0.0000000000000000e+00 1.0000000000000000e+03
ITEM: ATOMS id type x y z ix iy iz
1 1 0 0 0 0 0 0
2 2 -0.00038768 -0.000246702 0.999435 0 0 0
3 1 -0.000333648 9.34541e-05 2.00002 0 0 0
ITEM: TIMESTEP
95
ITEM: NUMBER OF ATOMS
3
ITEM: BOX BOUNDS pp pp pp
0.0000000000000000e+00 1.0000000000000000e+02
0.0000000000000000e+00 1.0000000000000000e+02
0.0000000000000000e+00 1.0000000000000000e+03
ITEM: ATOMS id type x y z ix iy iz
1 1 0 0 0 0 0 0
2 2 -0.000416875 -0.000267648 0.999422 0 0 0
3 1 -0.000353767 7.73939e-05 2 0 0 0
ITEM: TIMESTEP
100
ITEM: NUMBER OF ATOMS
3
ITEM: BOX BOUNDS pp pp pp
0.0000000000000000e+00 1.0000000000000000e+02
0.0000000000000000e+00 1.0000000000000000e+02
0.0000000000000000e+00 1.0000000000000000e+03
ITEM: ATOMS id type x y z ix iy iz
1 1 0 0 0 0 0 0
2 2 -0.000441551 -0.000292072 0.999416 0 0 0
3 1 -0.000386548 4.91869e-05 1.99999 0 0 0
ITEM: TIMESTEP
105
ITEM: NUMBER OF ATOMS
3
ITEM: BOX BOUNDS pp pp pp
0.0000000000000000e+00 1.0000000000000000e+02
0.0000000000000000e+00 1.0000000000000000e+02
0.0000000000000000e+00 1.0000000000000000e+03
ITEM: ATOMS id type x y z ix iy iz
1 1 0 0 0 0 0 0
2 2 -0.000476165 -0.000303376 0.999398 0 0 0
3 1 -0.000425309 1.87605e-05 1.99996 0 0 0
ITEM: TIMESTEP
110
ITEM: NUMBER OF ATOMS
3
ITEM: BOX BOUNDS pp pp pp
0.0000000000000000e+00 1.0000000000000000e+02
0.0000000000000000e+00 1.0000000000000000e+02
0.0000000000000000e+00 1.0000000000000000e+03
ITEM: ATOMS id type x y z ix iy iz
1 1 0 0 0 0 0 0
2 2 -0.000514679 -0.000311651 0.99938 0 0 0
3 1 -0.000465301 -1.71069e-05 1.99994 0 0 0
ITEM: TIMESTEP
115
ITEM: NUMBER OF ATOMS
3
ITEM: BOX BOUNDS pp pp pp
0.0000000000000000e+00 1.0000000000000000e+02
0.0000000000000000e+00 1.0000000000000000e+02
0.0000000000000000e+00 1.0000000000000000e+03
ITEM: ATOMS id type x y z ix iy iz
1 1 0 0 0 0 0 0
2 2 -0.000553573 -0.00032617 0.999359 0 0 0
3 1 -0.000500187 -5.35041e-05 1.99993 0 0 0
ITEM: TIMESTEP
120
ITEM: NUMBER OF ATOMS
3
ITEM: BOX BOUNDS pp pp pp
0.0000000000000000e+00 1.0000000000000000e+02
0.0000000000000000e+00 1.0000000000000000e+02
0.0000000000000000e+00 1.0000000000000000e+03
ITEM: ATOMS id type x y z ix iy iz
1 1 0 0 0 0 0 0
2 2 -0.000592126 -0.000342128 0.999338 0 0 0
3 1 -0.000539915 -0.000100821 1.99992 0 0 0
ITEM: TIMESTEP
125
ITEM: NUMBER OF ATOMS
3
ITEM: BOX BOUNDS pp pp pp
0.0000000000000000e+00 1.0000000000000000e+02
0.0000000000000000e+00 1.0000000000000000e+02
0.0000000000000000e+00 1.0000000000000000e+03
ITEM: ATOMS id type x y z ix iy iz
1 1 0 0 0 0 0 0
2 2 -0.000631974 -0.000360359 0.999333 0 0 0
3 1 -0.000577293 -0.000152853 1.99991 0 0 0
ITEM: TIMESTEP
130
ITEM: NUMBER OF ATOMS
3
ITEM: BOX BOUNDS pp pp pp
0.0000000000000000e+00 1.0000000000000000e+02
0.0000000000000000e+00 1.0000000000000000e+02
0.0000000000000000e+00 1.0000000000000000e+03
ITEM: ATOMS id type x y z ix iy iz
1 1 0 0 0 0 0 0
2 2 -0.00068796 -0.000390838 0.999325 0 0 0
3 1 -0.000622232 -0.000201967 1.9999 0 0 0
ITEM: TIMESTEP
135
ITEM: NUMBER OF ATOMS
3
ITEM: BOX BOUNDS pp pp pp
0.0000000000000000e+00 1.0000000000000000e+02
0.0000000000000000e+00 1.0000000000000000e+02
0.0000000000000000e+00 1.0000000000000000e+03
ITEM: ATOMS id type x y z ix iy iz
1 1 0 0 0 0 0 0
2 2 -0.000741643 -0.000410915 0.999315 0 0 0
3 1 -0.000669665 -0.000253358 1.99988 0 0 0
ITEM: TIMESTEP
140
ITEM: NUMBER OF ATOMS
3
ITEM: BOX BOUNDS pp pp pp
0.0000000000000000e+00 1.0000000000000000e+02
0.0000000000000000e+00 1.0000000000000000e+02
0.0000000000000000e+00 1.0000000000000000e+03
ITEM: ATOMS id type x y z ix iy iz
1 1 0 0 0 0 0 0
2 2 -0.000785434 -0.000423066 0.999308 0 0 0
3 1 -0.000721236 -0.00029932 1.99985 0 0 0
ITEM: TIMESTEP
145
ITEM: NUMBER OF ATOMS
3
ITEM: BOX BOUNDS pp pp pp
0.0000000000000000e+00 1.0000000000000000e+02
0.0000000000000000e+00 1.0000000000000000e+02
0.0000000000000000e+00 1.0000000000000000e+03
ITEM: ATOMS id type x y z ix iy iz
1 1 0 0 0 0 0 0
2 2 -0.000827448 -0.000430001 0.999303 0 0 0
3 1 -0.000763424 -0.000347205 1.99982 0 0 0
ITEM: TIMESTEP
150
ITEM: NUMBER OF ATOMS
3
ITEM: BOX BOUNDS pp pp pp
0.0000000000000000e+00 1.0000000000000000e+02
0.0000000000000000e+00 1.0000000000000000e+02
0.0000000000000000e+00 1.0000000000000000e+03
ITEM: ATOMS id type x y z ix iy iz
1 1 0 0 0 0 0 0
2 2 -0.000860047 -0.00042949 0.999305 0 0 0
3 1 -0.00081047 -0.000407788 1.9998 0 0 0
ITEM: TIMESTEP
155
ITEM: NUMBER OF ATOMS
3
ITEM: BOX BOUNDS pp pp pp
0.0000000000000000e+00 1.0000000000000000e+02
0.0000000000000000e+00 1.0000000000000000e+02
0.0000000000000000e+00 1.0000000000000000e+03
ITEM: ATOMS id type x y z ix iy iz
1 1 0 0 0 0 0 0
2 2 -0.000899022 -0.000429437 0.999302 0 0 0
3 1 -0.000858596 -0.000472404 1.99978 0 0 0
ITEM: TIMESTEP
160
ITEM: NUMBER OF ATOMS
3
ITEM: BOX BOUNDS pp pp pp
0.0000000000000000e+00 1.0000000000000000e+02
0.0000000000000000e+00 1.0000000000000000e+02
0.0000000000000000e+00 1.0000000000000000e+03
ITEM: ATOMS id type x y z ix iy iz
1 1 0 0 0 0 0 0
2 2 -0.000952273 -0.000427544 0.9993 0 0 0
3 1 -0.000908112 -0.000535484 1.99977 0 0 0
ITEM: TIMESTEP
165
ITEM: NUMBER OF ATOMS
3
ITEM: BOX BOUNDS pp pp pp
0.0000000000000000e+00 1.0000000000000000e+02
0.0000000000000000e+00 1.0000000000000000e+02
0.0000000000000000e+00 1.0000000000000000e+03
ITEM: ATOMS id type x y z ix iy iz
1 1 0 0 0 0 0 0
2 2 -0.00100685 -0.000428948 0.999282 0 0 0
3 1 -0.00096017 -0.000588759 1.99976 0 0 0
ITEM: TIMESTEP
170
ITEM: NUMBER OF ATOMS
3
ITEM: BOX BOUNDS pp pp pp
0.0000000000000000e+00 1.0000000000000000e+02
0.0000000000000000e+00 1.0000000000000000e+02
0.0000000000000000e+00 1.0000000000000000e+03
ITEM: ATOMS id type x y z ix iy iz
1 1 0 0 0 0 0 0
2 2 -0.00107253 -0.000429461 0.99926 0 0 0
3 1 -0.0010067 -0.000644234 1.99975 0 0 0
ITEM: TIMESTEP
175
ITEM: NUMBER OF ATOMS
3
ITEM: BOX BOUNDS pp pp pp
0.0000000000000000e+00 1.0000000000000000e+02
0.0000000000000000e+00 1.0000000000000000e+02
0.0000000000000000e+00 1.0000000000000000e+03
ITEM: ATOMS id type x y z ix iy iz
1 1 0 0 0 0 0 0
2 2 -0.00113728 -0.000435429 0.999232 0 0 0
3 1 -0.00105467 -0.000702972 1.99973 0 0 0
ITEM: TIMESTEP
180
ITEM: NUMBER OF ATOMS
3
ITEM: BOX BOUNDS pp pp pp
0.0000000000000000e+00 1.0000000000000000e+02
0.0000000000000000e+00 1.0000000000000000e+02
0.0000000000000000e+00 1.0000000000000000e+03
ITEM: ATOMS id type x y z ix iy iz
1 1 0 0 0 0 0 0
2 2 -0.00120332 -0.000456821 0.999207 0 0 0
3 1 -0.00110689 -0.000765352 1.99972 0 0 0
ITEM: TIMESTEP
185
ITEM: NUMBER OF ATOMS
3
ITEM: BOX BOUNDS pp pp pp
0.0000000000000000e+00 1.0000000000000000e+02
0.0000000000000000e+00 1.0000000000000000e+02
0.0000000000000000e+00 1.0000000000000000e+03
ITEM: ATOMS id type x y z ix iy iz
1 1 0 0 0 0 0 0
2 2 -0.0012645 -0.000493471 0.999187 0 0 0
3 1 -0.00116485 -0.000830812 1.99971 0 0 0
ITEM: TIMESTEP
190
ITEM: NUMBER OF ATOMS
3
ITEM: BOX BOUNDS pp pp pp
0.0000000000000000e+00 1.0000000000000000e+02
0.0000000000000000e+00 1.0000000000000000e+02
0.0000000000000000e+00 1.0000000000000000e+03
ITEM: ATOMS id type x y z ix iy iz
1 1 0 0 0 0 0 0
2 2 -0.00133185 -0.000526278 0.99918 0 0 0
3 1 -0.0012229 -0.000892451 1.99971 0 0 0
ITEM: TIMESTEP
195
ITEM: NUMBER OF ATOMS
3
ITEM: BOX BOUNDS pp pp pp
0.0000000000000000e+00 1.0000000000000000e+02
0.0000000000000000e+00 1.0000000000000000e+02
0.0000000000000000e+00 1.0000000000000000e+03
ITEM: ATOMS id type x y z ix iy iz
1 1 0 0 0 0 0 0
2 2 -0.00140642 -0.000551332 0.999178 0 0 0
3 1 -0.0012786 -0.000950649 1.9997 0 0 0
ITEM: TIMESTEP
200
ITEM: NUMBER OF ATOMS
3
ITEM: BOX BOUNDS pp pp pp
0.0000000000000000e+00 1.0000000000000000e+02
0.0000000000000000e+00 1.0000000000000000e+02
0.0000000000000000e+00 1.0000000000000000e+03
ITEM: ATOMS id type x y z ix iy iz
1 1 0 0 0 0 0 0
2 2 -0.00149587 -0.000582221 0.999172 0 0 0
3 1 -0.00133512 -0.00101054 1.99971 0 0 0
ITEM: TIMESTEP
205
ITEM: NUMBER OF ATOMS
3
ITEM: BOX BOUNDS pp pp pp
0.0000000000000000e+00 1.0000000000000000e+02
0.0000000000000000e+00 1.0000000000000000e+02
0.0000000000000000e+00 1.0000000000000000e+03
ITEM: ATOMS id type x y z ix iy iz
1 1 0 0 0 0 0 0
2 2 -0.00158103 -0.000613452 0.999158 0 0 0
3 1 -0.00137728 -0.00106665 1.99971 0 0 0
ITEM: TIMESTEP
210
ITEM: NUMBER OF ATOMS
3
ITEM: BOX BOUNDS pp pp pp
0.0000000000000000e+00 1.0000000000000000e+02
0.0000000000000000e+00 1.0000000000000000e+02
0.0000000000000000e+00 1.0000000000000000e+03
ITEM: ATOMS id type x y z ix iy iz
1 1 0 0 0 0 0 0
2 2 -0.00167186 -0.000647066 0.999139 0 0 0
3 1 -0.0014188 -0.00112096 1.99973 0 0 0
ITEM: TIMESTEP
215
ITEM: NUMBER OF ATOMS
3
ITEM: BOX BOUNDS pp pp pp
0.0000000000000000e+00 1.0000000000000000e+02
0.0000000000000000e+00 1.0000000000000000e+02
0.0000000000000000e+00 1.0000000000000000e+03
ITEM: ATOMS id type x y z ix iy iz
1 1 0 0 0 0 0 0
2 2 -0.00177243 -0.000673579 0.999112 0 0 0
3 1 -0.00146573 -0.00117567 1.99975 0 0 0
ITEM: TIMESTEP
220
ITEM: NUMBER OF ATOMS
3
ITEM: BOX BOUNDS pp pp pp
0.0000000000000000e+00 1.0000000000000000e+02
0.0000000000000000e+00 1.0000000000000000e+02
0.0000000000000000e+00 1.0000000000000000e+03
ITEM: ATOMS id type x y z ix iy iz
1 1 0 0 0 0 0 0
2 2 -0.0018716 -0.000698584 0.999088 0 0 0
3 1 -0.00151996 -0.00123553 1.99976 0 0 0
ITEM: TIMESTEP
225
ITEM: NUMBER OF ATOMS
3
ITEM: BOX BOUNDS pp pp pp
0.0000000000000000e+00 1.0000000000000000e+02
0.0000000000000000e+00 1.0000000000000000e+02
0.0000000000000000e+00 1.0000000000000000e+03
ITEM: ATOMS id type x y z ix iy iz
1 1 0 0 0 0 0 0
2 2 -0.00197247 -0.000734706 0.999047 0 0 0
3 1 -0.0015668 -0.00129806 1.99978 0 0 0
ITEM: TIMESTEP
230
ITEM: NUMBER OF ATOMS
3
ITEM: BOX BOUNDS pp pp pp
0.0000000000000000e+00 1.0000000000000000e+02
0.0000000000000000e+00 1.0000000000000000e+02
0.0000000000000000e+00 1.0000000000000000e+03
ITEM: ATOMS id type x y z ix iy iz
1 1 0 0 0 0 0 0
2 2 -0.00207476 -0.000780998 0.999002 0 0 0
3 1 -0.0016042 -0.00136764 1.9998 0 0 0
ITEM: TIMESTEP
235
ITEM: NUMBER OF ATOMS
3
ITEM: BOX BOUNDS pp pp pp
0.0000000000000000e+00 1.0000000000000000e+02
0.0000000000000000e+00 1.0000000000000000e+02
0.0000000000000000e+00 1.0000000000000000e+03
ITEM: ATOMS id type x y z ix iy iz
1 1 0 0 0 0 0 0
2 2 -0.00218559 -0.000836027 0.998968 0 0 0
3 1 -0.00164396 -0.00144071 1.99983 0 0 0
ITEM: TIMESTEP
240
ITEM: NUMBER OF ATOMS
3
ITEM: BOX BOUNDS pp pp pp
0.0000000000000000e+00 1.0000000000000000e+02
0.0000000000000000e+00 1.0000000000000000e+02
0.0000000000000000e+00 1.0000000000000000e+03
ITEM: ATOMS id type x y z ix iy iz
1 1 0 0 0 0 0 0
2 2 -0.00229923 -0.000897293 0.998948 0 0 0
3 1 -0.0016837 -0.00152203 1.99985 0 0 0
ITEM: TIMESTEP
245
ITEM: NUMBER OF ATOMS
3
ITEM: BOX BOUNDS pp pp pp
0.0000000000000000e+00 1.0000000000000000e+02
0.0000000000000000e+00 1.0000000000000000e+02
0.0000000000000000e+00 1.0000000000000000e+03
ITEM: ATOMS id type x y z ix iy iz
1 1 0 0 0 0 0 0
2 2 -0.00241403 -0.000964329 0.998934 0 0 0
3 1 -0.00172786 -0.00160061 1.99987 0 0 0
ITEM: TIMESTEP
250
ITEM: NUMBER OF ATOMS
3
ITEM: BOX BOUNDS pp pp pp
0.0000000000000000e+00 1.0000000000000000e+02
0.0000000000000000e+00 1.0000000000000000e+02
0.0000000000000000e+00 1.0000000000000000e+03
ITEM: ATOMS id type x y z ix iy iz
1 1 0 0 0 0 0 0
2 2 -0.00252519 -0.00102097 0.998917 0 0 0
3 1 -0.00177353 -0.00167709 1.99988 0 0 0
ITEM: TIMESTEP
255
ITEM: NUMBER OF ATOMS
3
ITEM: BOX BOUNDS pp pp pp
0.0000000000000000e+00 1.0000000000000000e+02
0.0000000000000000e+00 1.0000000000000000e+02
0.0000000000000000e+00 1.0000000000000000e+03
ITEM: ATOMS id type x y z ix iy iz
1 1 0 0 0 0 0 0
2 2 -0.0026356 -0.00107565 0.998888 0 0 0
3 1 -0.00181417 -0.00175056 1.99989 0 0 0
ITEM: TIMESTEP
260
ITEM: NUMBER OF ATOMS
3
ITEM: BOX BOUNDS pp pp pp
0.0000000000000000e+00 1.0000000000000000e+02
0.0000000000000000e+00 1.0000000000000000e+02
0.0000000000000000e+00 1.0000000000000000e+03
ITEM: ATOMS id type x y z ix iy iz
1 1 0 0 0 0 0 0
2 2 -0.0027477 -0.00112698 0.998856 0 0 0
3 1 -0.00185278 -0.00182627 1.99989 0 0 0
ITEM: TIMESTEP
265
ITEM: NUMBER OF ATOMS
3
ITEM: BOX BOUNDS pp pp pp
0.0000000000000000e+00 1.0000000000000000e+02
0.0000000000000000e+00 1.0000000000000000e+02
0.0000000000000000e+00 1.0000000000000000e+03
ITEM: ATOMS id type x y z ix iy iz
1 1 0 0 0 0 0 0
2 2 -0.00287174 -0.00118129 0.99883 0 0 0
3 1 -0.00189423 -0.00189972 1.9999 0 0 0
ITEM: TIMESTEP
270
ITEM: NUMBER OF ATOMS
3
ITEM: BOX BOUNDS pp pp pp
0.0000000000000000e+00 1.0000000000000000e+02
0.0000000000000000e+00 1.0000000000000000e+02
0.0000000000000000e+00 1.0000000000000000e+03
ITEM: ATOMS id type x y z ix iy iz
1 1 0 0 0 0 0 0
2 2 -0.0030018 -0.00123513 0.998812 0 0 0
3 1 -0.00193779 -0.00197251 1.9999 0 0 0
ITEM: TIMESTEP
275
ITEM: NUMBER OF ATOMS
3
ITEM: BOX BOUNDS pp pp pp
0.0000000000000000e+00 1.0000000000000000e+02
0.0000000000000000e+00 1.0000000000000000e+02
0.0000000000000000e+00 1.0000000000000000e+03
ITEM: ATOMS id type x y z ix iy iz
1 1 0 0 0 0 0 0
2 2 -0.00313274 -0.00127448 0.998794 0 0 0
3 1 -0.001986 -0.00204996 1.99991 0 0 0
ITEM: TIMESTEP
280
ITEM: NUMBER OF ATOMS
3
ITEM: BOX BOUNDS pp pp pp
0.0000000000000000e+00 1.0000000000000000e+02
0.0000000000000000e+00 1.0000000000000000e+02
0.0000000000000000e+00 1.0000000000000000e+03
ITEM: ATOMS id type x y z ix iy iz
1 1 0 0 0 0 0 0
2 2 -0.00326413 -0.00130933 0.998775 0 0 0
3 1 -0.00204314 -0.00212915 1.99993 0 0 0
ITEM: TIMESTEP
285
ITEM: NUMBER OF ATOMS
3
ITEM: BOX BOUNDS pp pp pp
0.0000000000000000e+00 1.0000000000000000e+02
0.0000000000000000e+00 1.0000000000000000e+02
0.0000000000000000e+00 1.0000000000000000e+03
ITEM: ATOMS id type x y z ix iy iz
1 1 0 0 0 0 0 0
2 2 -0.00340946 -0.00133893 0.998772 0 0 0
3 1 -0.00210738 -0.00219421 1.99995 0 0 0
ITEM: TIMESTEP
290
ITEM: NUMBER OF ATOMS
3
ITEM: BOX BOUNDS pp pp pp
0.0000000000000000e+00 1.0000000000000000e+02
0.0000000000000000e+00 1.0000000000000000e+02
0.0000000000000000e+00 1.0000000000000000e+03
ITEM: ATOMS id type x y z ix iy iz
1 1 0 0 0 0 0 0
2 2 -0.00355208 -0.00136817 0.998774 0 0 0
3 1 -0.00216654 -0.00224795 1.99997 0 0 0
ITEM: TIMESTEP
295
ITEM: NUMBER OF ATOMS
3
ITEM: BOX BOUNDS pp pp pp
0.0000000000000000e+00 1.0000000000000000e+02
0.0000000000000000e+00 1.0000000000000000e+02
0.0000000000000000e+00 1.0000000000000000e+03
ITEM: ATOMS id type x y z ix iy iz
1 1 0 0 0 0 0 0
2 2 -0.00369535 -0.00139802 0.998783 0 0 0
3 1 -0.00223818 -0.00229988 2 0 0 0
ITEM: TIMESTEP
300
ITEM: NUMBER OF ATOMS
3
ITEM: BOX BOUNDS pp pp pp
0.0000000000000000e+00 1.0000000000000000e+02
0.0000000000000000e+00 1.0000000000000000e+02
0.0000000000000000e+00 1.0000000000000000e+03
ITEM: ATOMS id type x y z ix iy iz
1 1 0 0 0 0 0 0
2 2 -0.00383679 -0.00142543 0.998787 0 0 0
3 1 -0.00231429 -0.00234947 2.00002 0 0 0
ITEM: TIMESTEP
305
ITEM: NUMBER OF ATOMS
3
ITEM: BOX BOUNDS pp pp pp
0.0000000000000000e+00 1.0000000000000000e+02
0.0000000000000000e+00 1.0000000000000000e+02
0.0000000000000000e+00 1.0000000000000000e+03
ITEM: ATOMS id type x y z ix iy iz
1 1 0 0 0 0 0 0
2 2 -0.00398376 -0.00145445 0.998789 0 0 0
3 1 -0.00237954 -0.00239687 2.00004 0 0 0
ITEM: TIMESTEP
310
ITEM: NUMBER OF ATOMS
3
ITEM: BOX BOUNDS pp pp pp
0.0000000000000000e+00 1.0000000000000000e+02
0.0000000000000000e+00 1.0000000000000000e+02
0.0000000000000000e+00 1.0000000000000000e+03
ITEM: ATOMS id type x y z ix iy iz
1 1 0 0 0 0 0 0
2 2 -0.00413138 -0.00149908 0.998779 0 0 0
3 1 -0.0024418 -0.00244742 2.00006 0 0 0
ITEM: TIMESTEP
315
ITEM: NUMBER OF ATOMS
3
ITEM: BOX BOUNDS pp pp pp
0.0000000000000000e+00 1.0000000000000000e+02
0.0000000000000000e+00 1.0000000000000000e+02
0.0000000000000000e+00 1.0000000000000000e+03
ITEM: ATOMS id type x y z ix iy iz
1 1 0 0 0 0 0 0
2 2 -0.00426991 -0.00154951 0.998762 0 0 0
3 1 -0.00249626 -0.00249939 2.00007 0 0 0
ITEM: TIMESTEP
320
ITEM: NUMBER OF ATOMS
3
ITEM: BOX BOUNDS pp pp pp
0.0000000000000000e+00 1.0000000000000000e+02
0.0000000000000000e+00 1.0000000000000000e+02
0.0000000000000000e+00 1.0000000000000000e+03
ITEM: ATOMS id type x y z ix iy iz
1 1 0 0 0 0 0 0
2 2 -0.00440815 -0.0016112 0.998735 0 0 0
3 1 -0.00254919 -0.00254757 2.00007 0 0 0
ITEM: TIMESTEP
325
ITEM: NUMBER OF ATOMS
3
ITEM: BOX BOUNDS pp pp pp
0.0000000000000000e+00 1.0000000000000000e+02
0.0000000000000000e+00 1.0000000000000000e+02
0.0000000000000000e+00 1.0000000000000000e+03
ITEM: ATOMS id type x y z ix iy iz
1 1 0 0 0 0 0 0
2 2 -0.00455384 -0.00168332 0.998692 0 0 0
3 1 -0.00260574 -0.00258887 2.00007 0 0 0
ITEM: TIMESTEP
330
ITEM: NUMBER OF ATOMS
3
ITEM: BOX BOUNDS pp pp pp
0.0000000000000000e+00 1.0000000000000000e+02
0.0000000000000000e+00 1.0000000000000000e+02
0.0000000000000000e+00 1.0000000000000000e+03
ITEM: ATOMS id type x y z ix iy iz
1 1 0 0 0 0 0 0
2 2 -0.00469531 -0.00175526 0.99864 0 0 0
3 1 -0.00266492 -0.00262834 2.00007 0 0 0
ITEM: TIMESTEP
335
ITEM: NUMBER OF ATOMS
3
ITEM: BOX BOUNDS pp pp pp
0.0000000000000000e+00 1.0000000000000000e+02
0.0000000000000000e+00 1.0000000000000000e+02
0.0000000000000000e+00 1.0000000000000000e+03
ITEM: ATOMS id type x y z ix iy iz
1 1 0 0 0 0 0 0
2 2 -0.00483384 -0.00182817 0.998586 0 0 0
3 1 -0.00272803 -0.00266559 2.00007 0 0 0
ITEM: TIMESTEP
340
ITEM: NUMBER OF ATOMS
3
ITEM: BOX BOUNDS pp pp pp
0.0000000000000000e+00 1.0000000000000000e+02
0.0000000000000000e+00 1.0000000000000000e+02
0.0000000000000000e+00 1.0000000000000000e+03
ITEM: ATOMS id type x y z ix iy iz
1 1 0 0 0 0 0 0
2 2 -0.00497287 -0.0019102 0.998542 0 0 0
3 1 -0.00279623 -0.0027103 2.00008 0 0 0
ITEM: TIMESTEP
345
ITEM: NUMBER OF ATOMS
3
ITEM: BOX BOUNDS pp pp pp
0.0000000000000000e+00 1.0000000000000000e+02
0.0000000000000000e+00 1.0000000000000000e+02
0.0000000000000000e+00 1.0000000000000000e+03
ITEM: ATOMS id type x y z ix iy iz
1 1 0 0 0 0 0 0
2 2 -0.00510804 -0.0020007 0.998512 0 0 0
3 1 -0.00285856 -0.0027508 2.00009 0 0 0
ITEM: TIMESTEP
350
ITEM: NUMBER OF ATOMS
3
ITEM: BOX BOUNDS pp pp pp
0.0000000000000000e+00 1.0000000000000000e+02
0.0000000000000000e+00 1.0000000000000000e+02
0.0000000000000000e+00 1.0000000000000000e+03
ITEM: ATOMS id type x y z ix iy iz
1 1 0 0 0 0 0 0
2 2 -0.0052274 -0.00209812 0.998494 0 0 0
3 1 -0.00292184 -0.00278505 2.0001 0 0 0
ITEM: TIMESTEP
355
ITEM: NUMBER OF ATOMS
3
ITEM: BOX BOUNDS pp pp pp
0.0000000000000000e+00 1.0000000000000000e+02
0.0000000000000000e+00 1.0000000000000000e+02
0.0000000000000000e+00 1.0000000000000000e+03
ITEM: ATOMS id type x y z ix iy iz
1 1 0 0 0 0 0 0
2 2 -0.00535248 -0.00218873 0.998476 0 0 0
3 1 -0.00298481 -0.00282504 2.00012 0 0 0
ITEM: TIMESTEP
360
ITEM: NUMBER OF ATOMS
3
ITEM: BOX BOUNDS pp pp pp
0.0000000000000000e+00 1.0000000000000000e+02
0.0000000000000000e+00 1.0000000000000000e+02
0.0000000000000000e+00 1.0000000000000000e+03
ITEM: ATOMS id type x y z ix iy iz
1 1 0 0 0 0 0 0
2 2 -0.00548542 -0.00227312 0.998452 0 0 0
3 1 -0.00305222 -0.00286143 2.00015 0 0 0
ITEM: TIMESTEP
365
ITEM: NUMBER OF ATOMS
3
ITEM: BOX BOUNDS pp pp pp
0.0000000000000000e+00 1.0000000000000000e+02
0.0000000000000000e+00 1.0000000000000000e+02
0.0000000000000000e+00 1.0000000000000000e+03
ITEM: ATOMS id type x y z ix iy iz
1 1 0 0 0 0 0 0
2 2 -0.00562697 -0.00234821 0.998423 0 0 0
3 1 -0.00311718 -0.00290798 2.00019 0 0 0
ITEM: TIMESTEP
370
ITEM: NUMBER OF ATOMS
3
ITEM: BOX BOUNDS pp pp pp
0.0000000000000000e+00 1.0000000000000000e+02
0.0000000000000000e+00 1.0000000000000000e+02
0.0000000000000000e+00 1.0000000000000000e+03
ITEM: ATOMS id type x y z ix iy iz
1 1 0 0 0 0 0 0
2 2 -0.00576252 -0.00241709 0.998402 0 0 0
3 1 -0.00317855 -0.00296677 2.00023 0 0 0
ITEM: TIMESTEP
375
ITEM: NUMBER OF ATOMS
3
ITEM: BOX BOUNDS pp pp pp
0.0000000000000000e+00 1.0000000000000000e+02
0.0000000000000000e+00 1.0000000000000000e+02
0.0000000000000000e+00 1.0000000000000000e+03
ITEM: ATOMS id type x y z ix iy iz
1 1 0 0 0 0 0 0
2 2 -0.00589747 -0.00247598 0.998376 0 0 0
3 1 -0.00323644 -0.0030349 2.00028 0 0 0
ITEM: TIMESTEP
380
ITEM: NUMBER OF ATOMS
3
ITEM: BOX BOUNDS pp pp pp
0.0000000000000000e+00 1.0000000000000000e+02
0.0000000000000000e+00 1.0000000000000000e+02
0.0000000000000000e+00 1.0000000000000000e+03
ITEM: ATOMS id type x y z ix iy iz
1 1 0 0 0 0 0 0
2 2 -0.0060359 -0.00253913 0.998351 0 0 0
3 1 -0.00329371 -0.00310426 2.00033 0 0 0
ITEM: TIMESTEP
385
ITEM: NUMBER OF ATOMS
3
ITEM: BOX BOUNDS pp pp pp
0.0000000000000000e+00 1.0000000000000000e+02
0.0000000000000000e+00 1.0000000000000000e+02
0.0000000000000000e+00 1.0000000000000000e+03
ITEM: ATOMS id type x y z ix iy iz
1 1 0 0 0 0 0 0
2 2 -0.00618624 -0.00259059 0.998321 0 0 0
3 1 -0.00334821 -0.00317221 2.00037 0 0 0
ITEM: TIMESTEP
390
ITEM: NUMBER OF ATOMS
3
ITEM: BOX BOUNDS pp pp pp
0.0000000000000000e+00 1.0000000000000000e+02
0.0000000000000000e+00 1.0000000000000000e+02
0.0000000000000000e+00 1.0000000000000000e+03
ITEM: ATOMS id type x y z ix iy iz
1 1 0 0 0 0 0 0
2 2 -0.00634785 -0.00263826 0.99829 0 0 0
3 1 -0.00340414 -0.00323928 2.00042 0 0 0
ITEM: TIMESTEP
395
ITEM: NUMBER OF ATOMS
3
ITEM: BOX BOUNDS pp pp pp
0.0000000000000000e+00 1.0000000000000000e+02
0.0000000000000000e+00 1.0000000000000000e+02
0.0000000000000000e+00 1.0000000000000000e+03
ITEM: ATOMS id type x y z ix iy iz
1 1 0 0 0 0 0 0
2 2 -0.00652083 -0.00268663 0.998252 0 0 0
3 1 -0.003458 -0.00330942 2.00047 0 0 0
ITEM: TIMESTEP
400
ITEM: NUMBER OF ATOMS
3
ITEM: BOX BOUNDS pp pp pp
0.0000000000000000e+00 1.0000000000000000e+02
0.0000000000000000e+00 1.0000000000000000e+02
0.0000000000000000e+00 1.0000000000000000e+03
ITEM: ATOMS id type x y z ix iy iz
1 1 0 0 0 0 0 0
2 2 -0.00670623 -0.00273771 0.998212 0 0 0
3 1 -0.00351252 -0.00338715 2.00052 0 0 0
ITEM: TIMESTEP
405
ITEM: NUMBER OF ATOMS
3
ITEM: BOX BOUNDS pp pp pp
0.0000000000000000e+00 1.0000000000000000e+02
0.0000000000000000e+00 1.0000000000000000e+02
0.0000000000000000e+00 1.0000000000000000e+03
ITEM: ATOMS id type x y z ix iy iz
1 1 0 0 0 0 0 0
2 2 -0.00689545 -0.00279387 0.998175 0 0 0
3 1 -0.00355518 -0.00347539 2.00056 0 0 0
ITEM: TIMESTEP
410
ITEM: NUMBER OF ATOMS
3
ITEM: BOX BOUNDS pp pp pp
0.0000000000000000e+00 1.0000000000000000e+02
0.0000000000000000e+00 1.0000000000000000e+02
0.0000000000000000e+00 1.0000000000000000e+03
ITEM: ATOMS id type x y z ix iy iz
1 1 0 0 0 0 0 0
2 2 -0.00709078 -0.00285223 0.998149 0 0 0
3 1 -0.00359715 -0.00356052 2.00061 0 0 0
ITEM: TIMESTEP
415
ITEM: NUMBER OF ATOMS
3
ITEM: BOX BOUNDS pp pp pp
0.0000000000000000e+00 1.0000000000000000e+02
0.0000000000000000e+00 1.0000000000000000e+02
0.0000000000000000e+00 1.0000000000000000e+03
ITEM: ATOMS id type x y z ix iy iz
1 1 0 0 0 0 0 0
2 2 -0.00728503 -0.00290406 0.998123 0 0 0
3 1 -0.00363464 -0.00364388 2.00065 0 0 0
ITEM: TIMESTEP
420
ITEM: NUMBER OF ATOMS
3
ITEM: BOX BOUNDS pp pp pp
0.0000000000000000e+00 1.0000000000000000e+02
0.0000000000000000e+00 1.0000000000000000e+02
0.0000000000000000e+00 1.0000000000000000e+03
ITEM: ATOMS id type x y z ix iy iz
1 1 0 0 0 0 0 0
2 2 -0.00747563 -0.00296159 0.998097 0 0 0
3 1 -0.00367809 -0.00371866 2.00068 0 0 0
ITEM: TIMESTEP
425
ITEM: NUMBER OF ATOMS
3
ITEM: BOX BOUNDS pp pp pp
0.0000000000000000e+00 1.0000000000000000e+02
0.0000000000000000e+00 1.0000000000000000e+02
0.0000000000000000e+00 1.0000000000000000e+03
ITEM: ATOMS id type x y z ix iy iz
1 1 0 0 0 0 0 0
2 2 -0.0076634 -0.00302597 0.998066 0 0 0
3 1 -0.00371994 -0.00380113 2.00072 0 0 0
ITEM: TIMESTEP
430
ITEM: NUMBER OF ATOMS
3
ITEM: BOX BOUNDS pp pp pp
0.0000000000000000e+00 1.0000000000000000e+02
0.0000000000000000e+00 1.0000000000000000e+02
0.0000000000000000e+00 1.0000000000000000e+03
ITEM: ATOMS id type x y z ix iy iz
1 1 0 0 0 0 0 0
2 2 -0.00784278 -0.0030862 0.998035 0 0 0
3 1 -0.00377339 -0.00389551 2.00077 0 0 0
ITEM: TIMESTEP
435
ITEM: NUMBER OF ATOMS
3
ITEM: BOX BOUNDS pp pp pp
0.0000000000000000e+00 1.0000000000000000e+02
0.0000000000000000e+00 1.0000000000000000e+02