ITEM: TIMESTEP
0
ITEM: NUMBER OF ENTRIES
1
ITEM: BOX BOUNDS pp pp pp
0.0000000000000000e+00 1.0000000000000000e+02
0.0000000000000000e+00 1.0000000000000000e+02
0.0000000000000000e+00 1.0000000000000000e+03
ITEM: ENTRIES c_myAngle
180 
ITEM: TIMESTEP
100
ITEM: NUMBER OF ENTRIES
1
ITEM: BOX BOUNDS pp pp pp
0.0000000000000000e+00 1.0000000000000000e+02
0.0000000000000000e+00 1.0000000000000000e+02
0.0000000000000000e+00 1.0000000000000000e+03
ITEM: ENTRIES c_myAngle
179.937 
ITEM: TIMESTEP
200
ITEM: NUMBER OF ENTRIES
1
ITEM: BOX BOUNDS pp pp pp
0.0000000000000000e+00 1.0000000000000000e+02
0.0000000000000000e+00 1.0000000000000000e+02
0.0000000000000000e+00 1.0000000000000000e+03
ITEM: ENTRIES c_myAngle
179.892 
ITEM: TIMESTEP
300
ITEM: NUMBER OF ENTRIES
1
ITEM: BOX BOUNDS pp pp pp
0.0000000000000000e+00 1.0000000000000000e+02
0.0000000000000000e+00 1.0000000000000000e+02
0.0000000000000000e+00 1.0000000000000000e+03
ITEM: ENTRIES c_myAngle
179.576 
ITEM: TIMESTEP
400
ITEM: NUMBER OF ENTRIES
1
ITEM: BOX BOUNDS pp pp pp
0.0000000000000000e+00 1.0000000000000000e+02
0.0000000000000000e+00 1.0000000000000000e+02
0.0000000000000000e+00 1.0000000000000000e+03
ITEM: ENTRIES c_myAngle
178.866 
ITEM: TIMESTEP
500
ITEM: NUMBER OF ENTRIES
1
ITEM: BOX BOUNDS pp pp pp
0.0000000000000000e+00 1.0000000000000000e+02
0.0000000000000000e+00 1.0000000000000000e+02
0.0000000000000000e+00 1.0000000000000000e+03
ITEM: ENTRIES c_myAngle
178.51 
ITEM: TIMESTEP
600
ITEM: NUMBER OF ENTRIES
1
ITEM: BOX BOUNDS pp pp pp
0.0000000000000000e+00 1.0000000000000000e+02
0.0000000000000000e+00 1.0000000000000000e+02
0.0000000000000000e+00 1.0000000000000000e+03
ITEM: ENTRIES c_myAngle
178.138 
ITEM: TIMESTEP
700
ITEM: NUMBER OF ENTRIES
1
ITEM: BOX BOUNDS pp pp pp
0.0000000000000000e+00 1.0000000000000000e+02
0.0000000000000000e+00 1.0000000000000000e+02
0.0000000000000000e+00 1.0000000000000000e+03
ITEM: ENTRIES c_myAngle
177.812 
ITEM: TIMESTEP
800
ITEM: NUMBER OF ENTRIES
1
ITEM: BOX BOUNDS pp pp pp
0.0000000000000000e+00 1.0000000000000000e+02
0.0000000000000000e+00 1.0000000000000000e+02
0.0000000000000000e+00 1.0000000000000000e+03
ITEM: ENTRIES c_myAngle
177.788 
ITEM: TIMESTEP
900
ITEM: NUMBER OF ENTRIES
1
ITEM: BOX BOUNDS pp pp pp
0.0000000000000000e+00 1.0000000000000000e+02
0.0000000000000000e+00 1.0000000000000000e+02
0.0000000000000000e+00 1.0000000000000000e+03
ITEM: ENTRIES c_myAngle
177.833 
ITEM: TIMESTEP
1000
ITEM: NUMBER OF ENTRIES
1
ITEM: BOX BOUNDS pp pp pp
0.0000000000000000e+00 1.0000000000000000e+02
0.0000000000000000e+00 1.0000000000000000e+02
0.0000000000000000e+00 1.0000000000000000e+03
ITEM: ENTRIES c_myAngle
177.851 
ITEM: TIMESTEP
1100
ITEM: NUMBER OF ENTRIES
1
ITEM: BOX BOUNDS pp pp pp
0.0000000000000000e+00 1.0000000000000000e+02
0.0000000000000000e+00 1.0000000000000000e+02
0.0000000000000000e+00 1.0000000000000000e+03
ITEM: ENTRIES c_myAngle
177.834 
ITEM: TIMESTEP
1200
ITEM: NUMBER OF ENTRIES
1
ITEM: BOX BOUNDS pp pp pp
0.0000000000000000e+00 1.0000000000000000e+02
0.0000000000000000e+00 1.0000000000000000e+02
0.0000000000000000e+00 1.0000000000000000e+03
ITEM: ENTRIES c_myAngle
177.831 
ITEM: TIMESTEP
1300
ITEM: NUMBER OF ENTRIES
1
ITEM: BOX BOUNDS pp pp pp
0.0000000000000000e+00 1.0000000000000000e+02
0.0000000000000000e+00 1.0000000000000000e+02
0.0000000000000000e+00 1.0000000000000000e+03
ITEM: ENTRIES c_myAngle
177.345 
ITEM: TIMESTEP
1400
ITEM: NUMBER OF ENTRIES
1
ITEM: BOX BOUNDS pp pp pp
0.0000000000000000e+00 1.0000000000000000e+02
0.0000000000000000e+00 1.0000000000000000e+02
0.0000000000000000e+00 1.0000000000000000e+03
ITEM: ENTRIES c_myAngle
176.866 
ITEM: TIMESTEP
1500
ITEM: NUMBER OF ENTRIES
1
ITEM: BOX BOUNDS pp pp pp
0.0000000000000000e+00 1.0000000000000000e+02
0.0000000000000000e+00 1.0000000000000000e+02
0.0000000000000000e+00 1.0000000000000000e+03
ITEM: ENTRIES c_myAngle
176.232 
ITEM: TIMESTEP
1600
ITEM: NUMBER OF ENTRIES
1
ITEM: BOX BOUNDS pp pp pp
0.0000000000000000e+00 1.0000000000000000e+02
0.0000000000000000e+00 1.0000000000000000e+02
0.0000000000000000e+00 1.0000000000000000e+03
ITEM: ENTRIES c_myAngle
175.284 
ITEM: TIMESTEP
1700
ITEM: NUMBER OF ENTRIES
1
ITEM: BOX BOUNDS pp pp pp
0.0000000000000000e+00 1.0000000000000000e+02
0.0000000000000000e+00 1.0000000000000000e+02
0.0000000000000000e+00 1.0000000000000000e+03
ITEM: ENTRIES c_myAngle
174.37 
ITEM: TIMESTEP
1800
ITEM: NUMBER OF ENTRIES
1
ITEM: BOX BOUNDS pp pp pp
0.0000000000000000e+00 1.0000000000000000e+02
0.0000000000000000e+00 1.0000000000000000e+02
0.0000000000000000e+00 1.0000000000000000e+03
ITEM: ENTRIES c_myAngle
173.888 
ITEM: TIMESTEP
1900
ITEM: NUMBER OF ENTRIES
1
ITEM: BOX BOUNDS pp pp pp
0.0000000000000000e+00 1.0000000000000000e+02
0.0000000000000000e+00 1.0000000000000000e+02
0.0000000000000000e+00 1.0000000000000000e+03
ITEM: ENTRIES c_myAngle
173.704 
ITEM: TIMESTEP
2000
ITEM: NUMBER OF ENTRIES
1
ITEM: BOX BOUNDS pp pp pp
0.0000000000000000e+00 1.0000000000000000e+02
0.0000000000000000e+00 1.0000000000000000e+02
0.0000000000000000e+00 1.0000000000000000e+03
ITEM: ENTRIES c_myAngle
174.104 
ITEM: TIMESTEP
2100
ITEM: NUMBER OF ENTRIES
1
ITEM: BOX BOUNDS pp pp pp
0.0000000000000000e+00 1.0000000000000000e+02
0.0000000000000000e+00 1.0000000000000000e+02
0.0000000000000000e+00 1.0000000000000000e+03
ITEM: ENTRIES c_myAngle
174.633 
ITEM: TIMESTEP
2200
ITEM: NUMBER OF ENTRIES
1
ITEM: BOX BOUNDS pp pp pp
0.0000000000000000e+00 1.0000000000000000e+02
0.0000000000000000e+00 1.0000000000000000e+02
0.0000000000000000e+00 1.0000000000000000e+03
ITEM: ENTRIES c_myAngle
175.134 
ITEM: TIMESTEP
2300
ITEM: NUMBER OF ENTRIES
1
ITEM: BOX BOUNDS pp pp pp
0.0000000000000000e+00 1.0000000000000000e+02
0.0000000000000000e+00 1.0000000000000000e+02
0.0000000000000000e+00 1.0000000000000000e+03
ITEM: ENTRIES c_myAngle
175.559 
ITEM: TIMESTEP
2400
ITEM: NUMBER OF ENTRIES
1
ITEM: BOX BOUNDS pp pp pp
0.0000000000000000e+00 1.0000000000000000e+02
0.0000000000000000e+00 1.0000000000000000e+02
0.0000000000000000e+00 1.0000000000000000e+03
ITEM: ENTRIES c_myAngle
175.914 
ITEM: TIMESTEP
2500
ITEM: NUMBER OF ENTRIES
1
ITEM: BOX BOUNDS pp pp pp
0.0000000000000000e+00 1.0000000000000000e+02
0.0000000000000000e+00 1.0000000000000000e+02
0.0000000000000000e+00 1.0000000000000000e+03
ITEM: ENTRIES c_myAngle
176.792 
ITEM: TIMESTEP
2600
ITEM: NUMBER OF ENTRIES
1
ITEM: BOX BOUNDS pp pp pp
0.0000000000000000e+00 1.0000000000000000e+02
0.0000000000000000e+00 1.0000000000000000e+02
0.0000000000000000e+00 1.0000000000000000e+03
ITEM: ENTRIES c_myAngle
178.094 
ITEM: TIMESTEP
2700
ITEM: NUMBER OF ENTRIES
1
ITEM: BOX BOUNDS pp pp pp
0.0000000000000000e+00 1.0000000000000000e+02
0.0000000000000000e+00 1.0000000000000000e+02
0.0000000000000000e+00 1.0000000000000000e+03
ITEM: ENTRIES c_myAngle
178.041 
ITEM: TIMESTEP
2800
ITEM: NUMBER OF ENTRIES
1
ITEM: BOX BOUNDS pp pp pp
0.0000000000000000e+00 1.0000000000000000e+02
0.0000000000000000e+00 1.0000000000000000e+02
0.0000000000000000e+00 1.0000000000000000e+03
ITEM: ENTRIES c_myAngle
175.828 
ITEM: TIMESTEP
2900
ITEM: NUMBER OF ENTRIES
1
ITEM: BOX BOUNDS pp pp pp
0.0000000000000000e+00 1.0000000000000000e+02
0.0000000000000000e+00 1.0000000000000000e+02
0.0000000000000000e+00 1.0000000000000000e+03
ITEM: ENTRIES c_myAngle
173.05 
ITEM: TIMESTEP
3000
ITEM: NUMBER OF ENTRIES
1
ITEM: BOX BOUNDS pp pp pp
0.0000000000000000e+00 1.0000000000000000e+02
0.0000000000000000e+00 1.0000000000000000e+02
0.0000000000000000e+00 1.0000000000000000e+03
ITEM: ENTRIES c_myAngle
169.743 
ITEM: TIMESTEP
3100
ITEM: NUMBER OF ENTRIES
1
ITEM: BOX BOUNDS pp pp pp
0.0000000000000000e+00 1.0000000000000000e+02
0.0000000000000000e+00 1.0000000000000000e+02
0.0000000000000000e+00 1.0000000000000000e+03
ITEM: ENTRIES c_myAngle
166.066 
ITEM: TIMESTEP
3200
ITEM: NUMBER OF ENTRIES
1
ITEM: BOX BOUNDS pp pp pp
0.0000000000000000e+00 1.0000000000000000e+02
0.0000000000000000e+00 1.0000000000000000e+02
0.0000000000000000e+00 1.0000000000000000e+03
ITEM: ENTRIES c_myAngle
162.503 
ITEM: TIMESTEP
3300
ITEM: NUMBER OF ENTRIES
1
ITEM: BOX BOUNDS pp pp pp
0.0000000000000000e+00 1.0000000000000000e+02
0.0000000000000000e+00 1.0000000000000000e+02
0.0000000000000000e+00 1.0000000000000000e+03
ITEM: ENTRIES c_myAngle
158.807 
ITEM: TIMESTEP
3400
ITEM: NUMBER OF ENTRIES
1
ITEM: BOX BOUNDS pp pp pp
0.0000000000000000e+00 1.0000000000000000e+02
0.0000000000000000e+00 1.0000000000000000e+02
0.0000000000000000e+00 1.0000000000000000e+03
ITEM: ENTRIES c_myAngle
155.538 
ITEM: TIMESTEP
3500
ITEM: NUMBER OF ENTRIES
1
ITEM: BOX BOUNDS pp pp pp
0.0000000000000000e+00 1.0000000000000000e+02
0.0000000000000000e+00 1.0000000000000000e+02
0.0000000000000000e+00 1.0000000000000000e+03
ITEM: ENTRIES c_myAngle
152.848 
ITEM: TIMESTEP
3600
ITEM: NUMBER OF ENTRIES
1
ITEM: BOX BOUNDS pp pp pp
0.0000000000000000e+00 1.0000000000000000e+02
0.0000000000000000e+00 1.0000000000000000e+02
0.0000000000000000e+00 1.0000000000000000e+03
ITEM: ENTRIES c_myAngle
151.435 
ITEM: TIMESTEP
3700
ITEM: NUMBER OF ENTRIES
1
ITEM: BOX BOUNDS pp pp pp
0.0000000000000000e+00 1.0000000000000000e+02
0.0000000000000000e+00 1.0000000000000000e+02
0.0000000000000000e+00 1.0000000000000000e+03
ITEM: ENTRIES c_myAngle
151.658 
ITEM: TIMESTEP
3800
ITEM: NUMBER OF ENTRIES
1
ITEM: BOX BOUNDS pp pp pp
0.0000000000000000e+00 1.0000000000000000e+02
0.0000000000000000e+00 1.0000000000000000e+02
0.0000000000000000e+00 1.0000000000000000e+03
ITEM: ENTRIES c_myAngle
154.173 
ITEM: TIMESTEP
3900
ITEM: NUMBER OF ENTRIES
1
ITEM: BOX BOUNDS pp pp pp
0.0000000000000000e+00 1.0000000000000000e+02
0.0000000000000000e+00 1.0000000000000000e+02
0.0000000000000000e+00 1.0000000000000000e+03
ITEM: ENTRIES c_myAngle
158.944 
ITEM: TIMESTEP
4000
ITEM: NUMBER OF ENTRIES
1
ITEM: BOX BOUNDS pp pp pp
0.0000000000000000e+00 1.0000000000000000e+02
0.0000000000000000e+00 1.0000000000000000e+02
0.0000000000000000e+00 1.0000000000000000e+03
ITEM: ENTRIES c_myAngle
167.093 
ITEM: TIMESTEP
4100
ITEM: NUMBER OF ENTRIES
1
ITEM: BOX BOUNDS pp pp pp
0.0000000000000000e+00 1.0000000000000000e+02
0.0000000000000000e+00 1.0000000000000000e+02
0.0000000000000000e+00 1.0000000000000000e+03
ITEM: ENTRIES c_myAngle
177.452 
ITEM: TIMESTEP
4200
ITEM: NUMBER OF ENTRIES
1
ITEM: BOX BOUNDS pp pp pp
0.0000000000000000e+00 1.0000000000000000e+02
0.0000000000000000e+00 1.0000000000000000e+02
0.0000000000000000e+00 1.0000000000000000e+03
ITEM: ENTRIES c_myAngle
170.65 
ITEM: TIMESTEP
4300
ITEM: NUMBER OF ENTRIES
1
ITEM: BOX BOUNDS pp pp pp
0.0000000000000000e+00 1.0000000000000000e+02
0.0000000000000000e+00 1.0000000000000000e+02
0.0000000000000000e+00 1.0000000000000000e+03
ITEM: ENTRIES c_myAngle
159.313 
ITEM: TIMESTEP
4400
ITEM: NUMBER OF ENTRIES
1
ITEM: BOX BOUNDS pp pp pp
0.0000000000000000e+00 1.0000000000000000e+02
0.0000000000000000e+00 1.0000000000000000e+02
0.0000000000000000e+00 1.0000000000000000e+03
ITEM: ENTRIES c_myAngle
150.269 
ITEM: TIMESTEP
4500
ITEM: NUMBER OF ENTRIES
1
ITEM: BOX BOUNDS pp pp pp
0.0000000000000000e+00 1.0000000000000000e+02
0.0000000000000000e+00 1.0000000000000000e+02
0.0000000000000000e+00 1.0000000000000000e+03
ITEM: ENTRIES c_myAngle
145.654 
ITEM: TIMESTEP
4600
ITEM: NUMBER OF ENTRIES
1
ITEM: BOX BOUNDS pp pp pp
0.0000000000000000e+00 1.0000000000000000e+02
0.0000000000000000e+00 1.0000000000000000e+02
0.0000000000000000e+00 1.0000000000000000e+03
ITEM: ENTRIES c_myAngle
144.524 
ITEM: TIMESTEP
4700
ITEM: NUMBER OF ENTRIES
1
ITEM: BOX BOUNDS pp pp pp
0.0000000000000000e+00 1.0000000000000000e+02
0.0000000000000000e+00 1.0000000000000000e+02
0.0000000000000000e+00 1.0000000000000000e+03
ITEM: ENTRIES c_myAngle
147.683 
ITEM: TIMESTEP
4800
ITEM: NUMBER OF ENTRIES
1
ITEM: BOX BOUNDS pp pp pp
0.0000000000000000e+00 1.0000000000000000e+02
0.0000000000000000e+00 1.0000000000000000e+02
0.0000000000000000e+00 1.0000000000000000e+03
ITEM: ENTRIES c_myAngle
153.98 
ITEM: TIMESTEP
4900
ITEM: NUMBER OF ENTRIES
1
ITEM: BOX BOUNDS pp pp pp
0.0000000000000000e+00 1.0000000000000000e+02
0.0000000000000000e+00 1.0000000000000000e+02
0.0000000000000000e+00 1.0000000000000000e+03
ITEM: ENTRIES c_myAngle
162.656 
ITEM: TIMESTEP
5000
ITEM: NUMBER OF ENTRIES
1
ITEM: BOX BOUNDS pp pp pp
0.0000000000000000e+00 1.0000000000000000e+02
0.0000000000000000e+00 1.0000000000000000e+02
0.0000000000000000e+00 1.0000000000000000e+03
ITEM: ENTRIES c_myAngle
172.158 
ITEM: TIMESTEP
5100
ITEM: NUMBER OF ENTRIES
1
ITEM: BOX BOUNDS pp pp pp
0.0000000000000000e+00 1.0000000000000000e+02
0.0000000000000000e+00 1.0000000000000000e+02
0.0000000000000000e+00 1.0000000000000000e+03
ITEM: ENTRIES c_myAngle
177.15 
ITEM: TIMESTEP
5200
ITEM: NUMBER OF ENTRIES
1
ITEM: BOX BOUNDS pp pp pp
0.0000000000000000e+00 1.0000000000000000e+02
0.0000000000000000e+00 1.0000000000000000e+02
0.0000000000000000e+00 1.0000000000000000e+03
ITEM: ENTRIES c_myAngle
170.576 
ITEM: TIMESTEP
5300
ITEM: NUMBER OF ENTRIES
1
ITEM: BOX BOUNDS pp pp pp
0.0000000000000000e+00 1.0000000000000000e+02
0.0000000000000000e+00 1.0000000000000000e+02
0.0000000000000000e+00 1.0000000000000000e+03
ITEM: ENTRIES c_myAngle
164.621 
ITEM: TIMESTEP
5400
ITEM: NUMBER OF ENTRIES
1
ITEM: BOX BOUNDS pp pp pp
0.0000000000000000e+00 1.0000000000000000e+02
0.0000000000000000e+00 1.0000000000000000e+02
0.0000000000000000e+00 1.0000000000000000e+03
ITEM: ENTRIES c_myAngle
159.526 
ITEM: TIMESTEP
5500
ITEM: NUMBER OF ENTRIES
1
ITEM: BOX BOUNDS pp pp pp
0.0000000000000000e+00 1.0000000000000000e+02
0.0000000000000000e+00 1.0000000000000000e+02
0.0000000000000000e+00 1.0000000000000000e+03
ITEM: ENTRIES c_myAngle
155.286 
ITEM: TIMESTEP
5600
ITEM: NUMBER OF ENTRIES
1
ITEM: BOX BOUNDS pp pp pp
0.0000000000000000e+00 1.0000000000000000e+02
0.0000000000000000e+00 1.0000000000000000e+02
0.0000000000000000e+00 1.0000000000000000e+03
ITEM: ENTRIES c_myAngle
152.059 
ITEM: TIMESTEP
5700
ITEM: NUMBER OF ENTRIES
1
ITEM: BOX BOUNDS pp pp pp
0.0000000000000000e+00 1.0000000000000000e+02
0.0000000000000000e+00 1.0000000000000000e+02
0.0000000000000000e+00 1.0000000000000000e+03
ITEM: ENTRIES c_myAngle
149.282 
ITEM: TIMESTEP
5800
ITEM: NUMBER OF ENTRIES
1
ITEM: BOX BOUNDS pp pp pp
0.0000000000000000e+00 1.0000000000000000e+02
0.0000000000000000e+00 1.0000000000000000e+02
0.0000000000000000e+00 1.0000000000000000e+03
ITEM: ENTRIES c_myAngle
147.464 
ITEM: TIMESTEP
5900
ITEM: NUMBER OF ENTRIES
1
ITEM: BOX BOUNDS pp pp pp
0.0000000000000000e+00 1.0000000000000000e+02
0.0000000000000000e+00 1.0000000000000000e+02
0.0000000000000000e+00 1.0000000000000000e+03
ITEM: ENTRIES c_myAngle
146.322 
ITEM: TIMESTEP
6000
ITEM: NUMBER OF ENTRIES
1
ITEM: BOX BOUNDS pp pp pp
0.0000000000000000e+00 1.0000000000000000e+02
0.0000000000000000e+00 1.0000000000000000e+02
0.0000000000000000e+00 1.0000000000000000e+03
ITEM: ENTRIES c_myAngle
145.717 
ITEM: TIMESTEP
6100
ITEM: NUMBER OF ENTRIES
1
ITEM: BOX BOUNDS pp pp pp
0.0000000000000000e+00 1.0000000000000000e+02
0.0000000000000000e+00 1.0000000000000000e+02
0.0000000000000000e+00 1.0000000000000000e+03
ITEM: ENTRIES c_myAngle
146.004 
ITEM: TIMESTEP
6200
ITEM: NUMBER OF ENTRIES
1
ITEM: BOX BOUNDS pp pp pp
0.0000000000000000e+00 1.0000000000000000e+02
0.0000000000000000e+00 1.0000000000000000e+02
0.0000000000000000e+00 1.0000000000000000e+03
ITEM: ENTRIES c_myAngle
147.31 
ITEM: TIMESTEP
6300
ITEM: NUMBER OF ENTRIES
1
ITEM: BOX BOUNDS pp pp pp
0.0000000000000000e+00 1.0000000000000000e+02
0.0000000000000000e+00 1.0000000000000000e+02
0.0000000000000000e+00 1.0000000000000000e+03
ITEM: ENTRIES c_myAngle
149.276 
ITEM: TIMESTEP
6400
ITEM: NUMBER OF ENTRIES
1
ITEM: BOX BOUNDS pp pp pp
0.0000000000000000e+00 1.0000000000000000e+02
0.0000000000000000e+00 1.0000000000000000e+02
0.0000000000000000e+00 1.0000000000000000e+03
ITEM: ENTRIES c_myAngle
152.162 
ITEM: TIMESTEP
6500
ITEM: NUMBER OF ENTRIES
1
ITEM: BOX BOUNDS pp pp pp
0.0000000000000000e+00 1.0000000000000000e+02
0.0000000000000000e+00 1.0000000000000000e+02
0.0000000000000000e+00 1.0000000000000000e+03
ITEM: ENTRIES c_myAngle
155.275 
ITEM: TIMESTEP
6600
ITEM: NUMBER OF ENTRIES
1
ITEM: BOX BOUNDS pp pp pp
0.0000000000000000e+00 1.0000000000000000e+02
0.0000000000000000e+00 1.0000000000000000e+02
0.0000000000000000e+00 1.0000000000000000e+03
ITEM: ENTRIES c_myAngle
158.101 
ITEM: TIMESTEP
6700
ITEM: NUMBER OF ENTRIES
1
ITEM: BOX BOUNDS pp pp pp
0.0000000000000000e+00 1.0000000000000000e+02
0.0000000000000000e+00 1.0000000000000000e+02
0.0000000000000000e+00 1.0000000000000000e+03
ITEM: ENTRIES c_myAngle
160.22 
ITEM: TIMESTEP
6800
ITEM: NUMBER OF ENTRIES
1
ITEM: BOX BOUNDS pp pp pp
0.0000000000000000e+00 1.0000000000000000e+02
0.0000000000000000e+00 1.0000000000000000e+02
0.0000000000000000e+00 1.0000000000000000e+03
ITEM: ENTRIES c_myAngle
160.281 
ITEM: TIMESTEP
6900
ITEM: NUMBER OF ENTRIES
1
ITEM: BOX BOUNDS pp pp pp
0.0000000000000000e+00 1.0000000000000000e+02
0.0000000000000000e+00 1.0000000000000000e+02
0.0000000000000000e+00 1.0000000000000000e+03
ITEM: ENTRIES c_myAngle
158.112 
ITEM: TIMESTEP
7000
ITEM: NUMBER OF ENTRIES
1
ITEM: BOX BOUNDS pp pp pp
0.0000000000000000e+00 1.0000000000000000e+02
0.0000000000000000e+00 1.0000000000000000e+02
0.0000000000000000e+00 1.0000000000000000e+03
ITEM: ENTRIES c_myAngle
155.003 
ITEM: TIMESTEP
7100
ITEM: NUMBER OF ENTRIES
1
ITEM: BOX BOUNDS pp pp pp
0.0000000000000000e+00 1.0000000000000000e+02
0.0000000000000000e+00 1.0000000000000000e+02
0.0000000000000000e+00 1.0000000000000000e+03
ITEM: ENTRIES c_myAngle
152.398 
ITEM: TIMESTEP
7200
ITEM: NUMBER OF ENTRIES
1
ITEM: BOX BOUNDS pp pp pp
0.0000000000000000e+00 1.0000000000000000e+02
0.0000000000000000e+00 1.0000000000000000e+02
0.0000000000000000e+00 1.0000000000000000e+03
ITEM: ENTRIES c_myAngle
150.194 
ITEM: TIMESTEP
7300
ITEM: NUMBER OF ENTRIES
1
ITEM: BOX BOUNDS pp pp pp
0.0000000000000000e+00 1.0000000000000000e+02
0.0000000000000000e+00 1.0000000000000000e+02
0.0000000000000000e+00 1.0000000000000000e+03
ITEM: ENTRIES c_myAngle
149.394 
ITEM: TIMESTEP
7400
ITEM: NUMBER OF ENTRIES
1
ITEM: BOX BOUNDS pp pp pp
0.0000000000000000e+00 1.0000000000000000e+02
0.0000000000000000e+00 1.0000000000000000e+02
0.0000000000000000e+00 1.0000000000000000e+03
ITEM: ENTRIES c_myAngle
151.06 
ITEM: TIMESTEP
7500
ITEM: NUMBER OF ENTRIES
1
ITEM: BOX BOUNDS pp pp pp
0.0000000000000000e+00 1.0000000000000000e+02
0.0000000000000000e+00 1.0000000000000000e+02
0.0000000000000000e+00 1.0000000000000000e+03
ITEM: ENTRIES c_myAngle
154.96 
ITEM: TIMESTEP
7600
ITEM: NUMBER OF ENTRIES
1
ITEM: BOX BOUNDS pp pp pp
0.0000000000000000e+00 1.0000000000000000e+02
0.0000000000000000e+00 1.0000000000000000e+02
0.0000000000000000e+00 1.0000000000000000e+03
ITEM: ENTRIES c_myAngle
161.106 
ITEM: TIMESTEP
7700
ITEM: NUMBER OF ENTRIES
1
ITEM: BOX BOUNDS pp pp pp
0.0000000000000000e+00 1.0000000000000000e+02
0.0000000000000000e+00 1.0000000000000000e+02
0.0000000000000000e+00 1.0000000000000000e+03
ITEM: ENTRIES c_myAngle
163.742 
ITEM: TIMESTEP
7800
ITEM: NUMBER OF ENTRIES
1
ITEM: BOX BOUNDS pp pp pp
0.0000000000000000e+00 1.0000000000000000e+02
0.0000000000000000e+00 1.0000000000000000e+02
0.0000000000000000e+00 1.0000000000000000e+03
ITEM: ENTRIES c_myAngle
155.364 
ITEM: TIMESTEP
7900
ITEM: NUMBER OF ENTRIES
1
ITEM: BOX BOUNDS pp pp pp
0.0000000000000000e+00 1.0000000000000000e+02
0.0000000000000000e+00 1.0000000000000000e+02
0.0000000000000000e+00 1.0000000000000000e+03
ITEM: ENTRIES c_myAngle
144.99 
ITEM: TIMESTEP
8000
ITEM: NUMBER OF ENTRIES
1
ITEM: BOX BOUNDS pp pp pp
0.0000000000000000e+00 1.0000000000000000e+02
0.0000000000000000e+00 1.0000000000000000e+02
0.0000000000000000e+00 1.0000000000000000e+03
ITEM: ENTRIES c_myAngle
140.562 
ITEM: TIMESTEP
8100
ITEM: NUMBER OF ENTRIES
1
ITEM: BOX BOUNDS pp pp pp
0.0000000000000000e+00 1.0000000000000000e+02
0.0000000000000000e+00 1.0000000000000000e+02
0.0000000000000000e+00 1.0000000000000000e+03
ITEM: ENTRIES c_myAngle
144.136 
ITEM: TIMESTEP
8200
ITEM: NUMBER OF ENTRIES
1
ITEM: BOX BOUNDS pp pp pp
0.0000000000000000e+00 1.0000000000000000e+02
0.0000000000000000e+00 1.0000000000000000e+02
0.0000000000000000e+00 1.0000000000000000e+03
ITEM: ENTRIES c_myAngle
152.123 
ITEM: TIMESTEP
8300
ITEM: NUMBER OF ENTRIES
1
ITEM: BOX BOUNDS pp pp pp
0.0000000000000000e+00 1.0000000000000000e+02
0.0000000000000000e+00 1.0000000000000000e+02
0.0000000000000000e+00 1.0000000000000000e+03
ITEM: ENTRIES c_myAngle
162.183 
ITEM: TIMESTEP
8400
ITEM: NUMBER OF ENTRIES
1
ITEM: BOX BOUNDS pp pp pp
0.0000000000000000e+00 1.0000000000000000e+02
0.0000000000000000e+00 1.0000000000000000e+02
0.0000000000000000e+00 1.0000000000000000e+03
ITEM: ENTRIES c_myAngle
171.795 
ITEM: TIMESTEP
8500
ITEM: NUMBER OF ENTRIES
1
ITEM: BOX BOUNDS pp pp pp
0.0000000000000000e+00 1.0000000000000000e+02
0.0000000000000000e+00 1.0000000000000000e+02
0.0000000000000000e+00 1.0000000000000000e+03
ITEM: ENTRIES c_myAngle
173.015 
ITEM: TIMESTEP
8600
ITEM: NUMBER OF ENTRIES
1
ITEM: BOX BOUNDS pp pp pp
0.0000000000000000e+00 1.0000000000000000e+02
0.0000000000000000e+00 1.0000000000000000e+02
0.0000000000000000e+00 1.0000000000000000e+03
ITEM: ENTRIES c_myAngle
166.951 
ITEM: TIMESTEP
8700
ITEM: NUMBER OF ENTRIES
1
ITEM: BOX BOUNDS pp pp pp
0.0000000000000000e+00 1.0000000000000000e+02
0.0000000000000000e+00 1.0000000000000000e+02
0.0000000000000000e+00 1.0000000000000000e+03
ITEM: ENTRIES c_myAngle
161.936 
ITEM: TIMESTEP
8800
ITEM: NUMBER OF ENTRIES
1
ITEM: BOX BOUNDS pp pp pp
0.0000000000000000e+00 1.0000000000000000e+02
0.0000000000000000e+00 1.0000000000000000e+02
0.0000000000000000e+00 1.0000000000000000e+03
ITEM: ENTRIES c_myAngle
158.132 
ITEM: TIMESTEP
8900
ITEM: NUMBER OF ENTRIES
1
ITEM: BOX BOUNDS pp pp pp
0.0000000000000000e+00 1.0000000000000000e+02
0.0000000000000000e+00 1.0000000000000000e+02
0.0000000000000000e+00 1.0000000000000000e+03
ITEM: ENTRIES c_myAngle
154.958 
ITEM: TIMESTEP
9000
ITEM: NUMBER OF ENTRIES
1
ITEM: BOX BOUNDS pp pp pp
0.0000000000000000e+00 1.0000000000000000e+02
0.0000000000000000e+00 1.0000000000000000e+02
0.0000000000000000e+00 1.0000000000000000e+03
ITEM: ENTRIES c_myAngle
153.214 
ITEM: TIMESTEP
9100
ITEM: NUMBER OF ENTRIES
1
ITEM: BOX BOUNDS pp pp pp
0.0000000000000000e+00 1.0000000000000000e+02
0.0000000000000000e+00 1.0000000000000000e+02
0.0000000000000000e+00 1.0000000000000000e+03
ITEM: ENTRIES c_myAngle
152.722 
ITEM: TIMESTEP
9200
ITEM: NUMBER OF ENTRIES
1
ITEM: BOX BOUNDS pp pp pp
0.0000000000000000e+00 1.0000000000000000e+02
0.0000000000000000e+00 1.0000000000000000e+02
0.0000000000000000e+00 1.0000000000000000e+03
ITEM: ENTRIES c_myAngle
153.303 
ITEM: TIMESTEP
9300
ITEM: NUMBER OF ENTRIES
1
ITEM: BOX BOUNDS pp pp pp
0.0000000000000000e+00 1.0000000000000000e+02
0.0000000000000000e+00 1.0000000000000000e+02
0.0000000000000000e+00 1.0000000000000000e+03
ITEM: ENTRIES c_myAngle
154.971 
ITEM: TIMESTEP
9400
ITEM: NUMBER OF ENTRIES
1
ITEM: BOX BOUNDS pp pp pp
0.0000000000000000e+00 1.0000000000000000e+02
0.0000000000000000e+00 1.0000000000000000e+02
0.0000000000000000e+00 1.0000000000000000e+03
ITEM: ENTRIES c_myAngle
156.676 
ITEM: TIMESTEP
9500
ITEM: NUMBER OF ENTRIES
1
ITEM: BOX BOUNDS pp pp pp
0.0000000000000000e+00 1.0000000000000000e+02
0.0000000000000000e+00 1.0000000000000000e+02
0.0000000000000000e+00 1.0000000000000000e+03
ITEM: ENTRIES c_myAngle
158.288 
ITEM: TIMESTEP
9600
ITEM: NUMBER OF ENTRIES
1
ITEM: BOX BOUNDS pp pp pp
0.0000000000000000e+00 1.0000000000000000e+02
0.0000000000000000e+00 1.0000000000000000e+02
0.0000000000000000e+00 1.0000000000000000e+03
ITEM: ENTRIES c_myAngle
154.196 
ITEM: TIMESTEP
9700
ITEM: NUMBER OF ENTRIES
1
ITEM: BOX BOUNDS pp pp pp
0.0000000000000000e+00 1.0000000000000000e+02
0.0000000000000000e+00 1.0000000000000000e+02
0.0000000000000000e+00 1.0000000000000000e+03
ITEM: ENTRIES c_myAngle
142.986 
ITEM: TIMESTEP
9800
ITEM: NUMBER OF ENTRIES
1
ITEM: BOX BOUNDS pp pp pp
0.0000000000000000e+00 1.0000000000000000e+02
0.0000000000000000e+00 1.0000000000000000e+02
0.0000000000000000e+00 1.0000000000000000e+03
ITEM: ENTRIES c_myAngle
135.657 
ITEM: TIMESTEP
9900
ITEM: NUMBER OF ENTRIES
1
ITEM: BOX BOUNDS pp pp pp
0.0000000000000000e+00 1.0000000000000000e+02
0.0000000000000000e+00 1.0000000000000000e+02
0.0000000000000000e+00 1.0000000000000000e+03
ITEM: ENTRIES c_myAngle
141.951 
ITEM: TIMESTEP
10000
ITEM: NUMBER OF ENTRIES
1
ITEM: BOX BOUNDS pp pp pp
0.0000000000000000e+00 1.0000000000000000e+02
0.0000000000000000e+00 1.0000000000000000e+02
0.0000000000000000e+00 1.0000000000000000e+03
ITEM: ENTRIES c_myAngle
155.151 
ITEM: TIMESTEP
10100
ITEM: NUMBER OF ENTRIES
1
ITEM: BOX BOUNDS pp pp pp
0.0000000000000000e+00 1.0000000000000000e+02
0.0000000000000000e+00 1.0000000000000000e+02
0.0000000000000000e+00 1.0000000000000000e+03
ITEM: ENTRIES c_myAngle
152.008 
ITEM: TIMESTEP
10200
ITEM: NUMBER OF ENTRIES
1
ITEM: BOX BOUNDS pp pp pp
0.0000000000000000e+00 1.0000000000000000e+02
0.0000000000000000e+00 1.0000000000000000e+02
0.0000000000000000e+00 1.0000000000000000e+03
ITEM: ENTRIES c_myAngle
147.39 
ITEM: TIMESTEP
10300
ITEM: NUMBER OF ENTRIES
1
ITEM: BOX BOUNDS pp pp pp
0.0000000000000000e+00 1.0000000000000000e+02
0.0000000000000000e+00 1.0000000000000000e+02
0.0000000000000000e+00 1.0000000000000000e+03
ITEM: ENTRIES c_myAngle
148.427 
ITEM: TIMESTEP
10400
ITEM: NUMBER OF ENTRIES
1
ITEM: BOX BOUNDS pp pp pp
0.0000000000000000e+00 1.0000000000000000e+02
0.0000000000000000e+00 1.0000000000000000e+02
0.0000000000000000e+00 1.0000000000000000e+03
ITEM: ENTRIES c_myAngle
151.857 
ITEM: TIMESTEP
10500
ITEM: NUMBER OF ENTRIES
1
ITEM: BOX BOUNDS pp pp pp
0.0000000000000000e+00 1.0000000000000000e+02
0.0000000000000000e+00 1.0000000000000000e+02
0.0000000000000000e+00 1.0000000000000000e+03
ITEM: ENTRIES c_myAngle
156.365 
ITEM: TIMESTEP
10600
ITEM: NUMBER OF ENTRIES
1
ITEM: BOX BOUNDS pp pp pp
0.0000000000000000e+00 1.0000000000000000e+02
0.0000000000000000e+00 1.0000000000000000e+02
0.0000000000000000e+00 1.0000000000000000e+03
ITEM: ENTRIES c_myAngle
160.569 
ITEM: TIMESTEP
10700
ITEM: NUMBER OF ENTRIES
1
ITEM: BOX BOUNDS pp pp pp
0.0000000000000000e+00 1.0000000000000000e+02
0.0000000000000000e+00 1.0000000000000000e+02
0.0000000000000000e+00 1.0000000000000000e+03
ITEM: ENTRIES c_myAngle
165.422 
ITEM: TIMESTEP
10800
ITEM: NUMBER OF ENTRIES
1
ITEM: BOX BOUNDS pp pp pp
0.0000000000000000e+00 1.0000000000000000e+02
0.0000000000000000e+00 1.0000000000000000e+02
0.0000000000000000e+00 1.0000000000000000e+03
ITEM: ENTRIES c_myAngle
170.441 
ITEM: TIMESTEP
10900
ITEM: NUMBER OF ENTRIES
1
ITEM: BOX BOUNDS pp pp pp
0.0000000000000000e+00 1.0000000000000000e+02
0.0000000000000000e+00 1.0000000000000000e+02
0.0000000000000000e+00 1.0000000000000000e+03
ITEM: ENTRIES c_myAngle
174.417 
ITEM: TIMESTEP
11000
ITEM: NUMBER OF ENTRIES
1
ITEM: BOX BOUNDS pp pp pp
0.0000000000000000e+00 1.0000000000000000e+02
0.0000000000000000e+00 1.0000000000000000e+02
0.0000000000000000e+00 1.0000000000000000e+03
ITEM: ENTRIES c_myAngle
174.297 
ITEM: TIMESTEP
11100
ITEM: NUMBER OF ENTRIES
1
ITEM: BOX BOUNDS pp pp pp
0.0000000000000000e+00 1.0000000000000000e+02
0.0000000000000000e+00 1.0000000000000000e+02
0.0000000000000000e+00 1.0000000000000000e+03
ITEM: ENTRIES c_myAngle
170.24 
ITEM: TIMESTEP
11200
ITEM: NUMBER OF ENTRIES
1
ITEM: BOX BOUNDS pp pp pp
0.0000000000000000e+00 1.0000000000000000e+02
0.0000000000000000e+00 1.0000000000000000e+02
0.0000000000000000e+00 1.0000000000000000e+03
ITEM: ENTRIES c_myAngle
165.876 
ITEM: TIMESTEP
11300
ITEM: NUMBER OF ENTRIES
1
ITEM: BOX BOUNDS pp pp pp
0.0000000000000000e+00 1.0000000000000000e+02
0.0000000000000000e+00 1.0000000000000000e+02
0.0000000000000000e+00 1.0000000000000000e+03
ITEM: ENTRIES c_myAngle
161.765 
ITEM: TIMESTEP
11400
ITEM: NUMBER OF ENTRIES
1
ITEM: BOX BOUNDS pp pp pp
0.0000000000000000e+00 1.0000000000000000e+02
0.0000000000000000e+00 1.0000000000000000e+02
0.0000000000000000e+00 1.0000000000000000e+03
ITEM: ENTRIES c_myAngle
157.534 
ITEM: TIMESTEP
11500
ITEM: NUMBER OF ENTRIES
1
ITEM: BOX BOUNDS pp pp pp
0.0000000000000000e+00 1.0000000000000000e+02
0.0000000000000000e+00 1.0000000000000000e+02
0.0000000000000000e+00 1.0000000000000000e+03
ITEM: ENTRIES c_myAngle
154.687 
ITEM: TIMESTEP
11600
ITEM: NUMBER OF ENTRIES
1
ITEM: BOX BOUNDS pp pp pp
0.0000000000000000e+00 1.0000000000000000e+02
0.0000000000000000e+00 1.0000000000000000e+02
0.0000000000000000e+00 1.0000000000000000e+03
ITEM: ENTRIES c_myAngle
153.372 
ITEM: TIMESTEP
11700
ITEM: NUMBER OF ENTRIES
1
ITEM: BOX BOUNDS pp pp pp
0.0000000000000000e+00 1.0000000000000000e+02
0.0000000000000000e+00 1.0000000000000000e+02
0.0000000000000000e+00 1.0000000000000000e+03
ITEM: ENTRIES c_myAngle
152.667 
ITEM: TIMESTEP
11800
ITEM: NUMBER OF ENTRIES
1
ITEM: BOX BOUNDS pp pp pp
0.0000000000000000e+00 1.0000000000000000e+02
0.0000000000000000e+00 1.0000000000000000e+02
0.0000000000000000e+00 1.0000000000000000e+03
ITEM: ENTRIES c_myAngle
153.381 
ITEM: TIMESTEP
11900
ITEM: NUMBER OF ENTRIES
1
ITEM: BOX BOUNDS pp pp pp
0.0000000000000000e+00 1.0000000000000000e+02
0.0000000000000000e+00 1.0000000000000000e+02
0.0000000000000000e+00 1.0000000000000000e+03
ITEM: ENTRIES c_myAngle
156.857 
ITEM: TIMESTEP
12000
ITEM: NUMBER OF ENTRIES
1
ITEM: BOX BOUNDS pp pp pp
0.0000000000000000e+00 1.0000000000000000e+02
0.0000000000000000e+00 1.0000000000000000e+02
0.0000000000000000e+00 1.0000000000000000e+03
ITEM: ENTRIES c_myAngle
161.933 
ITEM: TIMESTEP
12100
ITEM: NUMBER OF ENTRIES
1
ITEM: BOX BOUNDS pp pp pp
0.0000000000000000e+00 1.0000000000000000e+02
0.0000000000000000e+00 1.0000000000000000e+02
0.0000000000000000e+00 1.0000000000000000e+03
ITEM: ENTRIES c_myAngle
168.808 
ITEM: TIMESTEP
12200
ITEM: NUMBER OF ENTRIES
1
ITEM: BOX BOUNDS pp pp pp
0.0000000000000000e+00 1.0000000000000000e+02
0.0000000000000000e+00 1.0000000000000000e+02
0.0000000000000000e+00 1.0000000000000000e+03
ITEM: ENTRIES c_myAngle
176.441 
ITEM: TIMESTEP
12300
ITEM: NUMBER OF ENTRIES
1
ITEM: BOX BOUNDS pp pp pp