ITEM: TIMESTEP
0
ITEM: NUMBER OF ENTRIES
2
ITEM: BOX BOUNDS pp pp pp
0.0000000000000000e+00 1.0000000000000000e+02
0.0000000000000000e+00 1.0000000000000000e+02
0.0000000000000000e+00 1.0000000000000000e+03
ITEM: ENTRIES c_btype c_bondlen
1 1 
1 1 
ITEM: TIMESTEP
5
ITEM: NUMBER OF ENTRIES
2
ITEM: BOX BOUNDS pp pp pp
0.0000000000000000e+00 1.0000000000000000e+02
0.0000000000000000e+00 1.0000000000000000e+02
0.0000000000000000e+00 1.0000000000000000e+03
ITEM: ENTRIES c_btype c_bondlen
1 1.01158 
1 0.996834 
ITEM: TIMESTEP
10
ITEM: NUMBER OF ENTRIES
2
ITEM: BOX BOUNDS pp pp pp
0.0000000000000000e+00 1.0000000000000000e+02
0.0000000000000000e+00 1.0000000000000000e+02
0.0000000000000000e+00 1.0000000000000000e+03
ITEM: ENTRIES c_btype c_bondlen
1 1.02227 
1 1.00033 
ITEM: TIMESTEP
15
ITEM: NUMBER OF ENTRIES
2
ITEM: BOX BOUNDS pp pp pp
0.0000000000000000e+00 1.0000000000000000e+02
0.0000000000000000e+00 1.0000000000000000e+02
0.0000000000000000e+00 1.0000000000000000e+03
ITEM: ENTRIES c_btype c_bondlen
1 1.02255 
1 1.01366 
ITEM: TIMESTEP
20
ITEM: NUMBER OF ENTRIES
2
ITEM: BOX BOUNDS pp pp pp
0.0000000000000000e+00 1.0000000000000000e+02
0.0000000000000000e+00 1.0000000000000000e+02
0.0000000000000000e+00 1.0000000000000000e+03
ITEM: ENTRIES c_btype c_bondlen
1 1.01099 
1 1.05137 
ITEM: TIMESTEP
25
ITEM: NUMBER OF ENTRIES
2
ITEM: BOX BOUNDS pp pp pp
0.0000000000000000e+00 1.0000000000000000e+02
0.0000000000000000e+00 1.0000000000000000e+02
0.0000000000000000e+00 1.0000000000000000e+03
ITEM: ENTRIES c_btype c_bondlen
1 1.01898 
1 1.05376 
ITEM: TIMESTEP
30
ITEM: NUMBER OF ENTRIES
2
ITEM: BOX BOUNDS pp pp pp
0.0000000000000000e+00 1.0000000000000000e+02
0.0000000000000000e+00 1.0000000000000000e+02
0.0000000000000000e+00 1.0000000000000000e+03
ITEM: ENTRIES c_btype c_bondlen
1 1.04658 
1 1.0058 
ITEM: TIMESTEP
35
ITEM: NUMBER OF ENTRIES
2
ITEM: BOX BOUNDS pp pp pp
0.0000000000000000e+00 1.0000000000000000e+02
0.0000000000000000e+00 1.0000000000000000e+02
0.0000000000000000e+00 1.0000000000000000e+03
ITEM: ENTRIES c_btype c_bondlen
1 1.02611 
1 1.00075 
ITEM: TIMESTEP
40
ITEM: NUMBER OF ENTRIES
2
ITEM: BOX BOUNDS pp pp pp
0.0000000000000000e+00 1.0000000000000000e+02
0.0000000000000000e+00 1.0000000000000000e+02
0.0000000000000000e+00 1.0000000000000000e+03
ITEM: ENTRIES c_btype c_bondlen
1 0.963094 
1 1.04237 
ITEM: TIMESTEP
45
ITEM: NUMBER OF ENTRIES
2
ITEM: BOX BOUNDS pp pp pp
0.0000000000000000e+00 1.0000000000000000e+02
0.0000000000000000e+00 1.0000000000000000e+02
0.0000000000000000e+00 1.0000000000000000e+03
ITEM: ENTRIES c_btype c_bondlen
1 0.928758 
1 1.04303 
ITEM: TIMESTEP
50
ITEM: NUMBER OF ENTRIES
2
ITEM: BOX BOUNDS pp pp pp
0.0000000000000000e+00 1.0000000000000000e+02
0.0000000000000000e+00 1.0000000000000000e+02
0.0000000000000000e+00 1.0000000000000000e+03
ITEM: ENTRIES c_btype c_bondlen
1 0.945705 
1 0.962599 
ITEM: TIMESTEP
55
ITEM: NUMBER OF ENTRIES
2
ITEM: BOX BOUNDS pp pp pp
0.0000000000000000e+00 1.0000000000000000e+02
0.0000000000000000e+00 1.0000000000000000e+02
0.0000000000000000e+00 1.0000000000000000e+03
ITEM: ENTRIES c_btype c_bondlen
1 0.977057 
1 0.866268 
ITEM: TIMESTEP
60
ITEM: NUMBER OF ENTRIES
2
ITEM: BOX BOUNDS pp pp pp
0.0000000000000000e+00 1.0000000000000000e+02
0.0000000000000000e+00 1.0000000000000000e+02
0.0000000000000000e+00 1.0000000000000000e+03
ITEM: ENTRIES c_btype c_bondlen
1 0.965236 
1 0.86025 
ITEM: TIMESTEP
65
ITEM: NUMBER OF ENTRIES
2
ITEM: BOX BOUNDS pp pp pp
0.0000000000000000e+00 1.0000000000000000e+02
0.0000000000000000e+00 1.0000000000000000e+02
0.0000000000000000e+00 1.0000000000000000e+03
ITEM: ENTRIES c_btype c_bondlen
1 0.910879 
1 0.929634 
ITEM: TIMESTEP
70
ITEM: NUMBER OF ENTRIES
2
ITEM: BOX BOUNDS pp pp pp
0.0000000000000000e+00 1.0000000000000000e+02
0.0000000000000000e+00 1.0000000000000000e+02
0.0000000000000000e+00 1.0000000000000000e+03
ITEM: ENTRIES c_btype c_bondlen
1 0.861935 
1 1.01854 
ITEM: TIMESTEP
75
ITEM: NUMBER OF ENTRIES
2
ITEM: BOX BOUNDS pp pp pp
0.0000000000000000e+00 1.0000000000000000e+02
0.0000000000000000e+00 1.0000000000000000e+02
0.0000000000000000e+00 1.0000000000000000e+03
ITEM: ENTRIES c_btype c_bondlen
1 0.865903 
1 1.04739 
ITEM: TIMESTEP
80
ITEM: NUMBER OF ENTRIES
2
ITEM: BOX BOUNDS pp pp pp
0.0000000000000000e+00 1.0000000000000000e+02
0.0000000000000000e+00 1.0000000000000000e+02
0.0000000000000000e+00 1.0000000000000000e+03
ITEM: ENTRIES c_btype c_bondlen
1 0.943738 
1 0.991204 
ITEM: TIMESTEP
85
ITEM: NUMBER OF ENTRIES
2
ITEM: BOX BOUNDS pp pp pp
0.0000000000000000e+00 1.0000000000000000e+02
0.0000000000000000e+00 1.0000000000000000e+02
0.0000000000000000e+00 1.0000000000000000e+03
ITEM: ENTRIES c_btype c_bondlen
1 1.04014 
1 0.915609 
ITEM: TIMESTEP
90
ITEM: NUMBER OF ENTRIES
2
ITEM: BOX BOUNDS pp pp pp
0.0000000000000000e+00 1.0000000000000000e+02
0.0000000000000000e+00 1.0000000000000000e+02
0.0000000000000000e+00 1.0000000000000000e+03
ITEM: ENTRIES c_btype c_bondlen
1 1.0828 
1 0.900738 
ITEM: TIMESTEP
95
ITEM: NUMBER OF ENTRIES
2
ITEM: BOX BOUNDS pp pp pp
0.0000000000000000e+00 1.0000000000000000e+02
0.0000000000000000e+00 1.0000000000000000e+02
0.0000000000000000e+00 1.0000000000000000e+03
ITEM: ENTRIES c_btype c_bondlen
1 1.05428 
1 0.999094 
ITEM: TIMESTEP
100
ITEM: NUMBER OF ENTRIES
2
ITEM: BOX BOUNDS pp pp pp
0.0000000000000000e+00 1.0000000000000000e+02
0.0000000000000000e+00 1.0000000000000000e+02
0.0000000000000000e+00 1.0000000000000000e+03
ITEM: ENTRIES c_btype c_bondlen
1 1.01104 
1 1.1221 
ITEM: TIMESTEP
105
ITEM: NUMBER OF ENTRIES
2
ITEM: BOX BOUNDS pp pp pp
0.0000000000000000e+00 1.0000000000000000e+02
0.0000000000000000e+00 1.0000000000000000e+02
0.0000000000000000e+00 1.0000000000000000e+03
ITEM: ENTRIES c_btype c_bondlen
1 1.03208 
1 1.14595 
ITEM: TIMESTEP
110
ITEM: NUMBER OF ENTRIES
2
ITEM: BOX BOUNDS pp pp pp
0.0000000000000000e+00 1.0000000000000000e+02
0.0000000000000000e+00 1.0000000000000000e+02
0.0000000000000000e+00 1.0000000000000000e+03
ITEM: ENTRIES c_btype c_bondlen
1 1.12415 
1 1.04538 
ITEM: TIMESTEP
115
ITEM: NUMBER OF ENTRIES
2
ITEM: BOX BOUNDS pp pp pp
0.0000000000000000e+00 1.0000000000000000e+02
0.0000000000000000e+00 1.0000000000000000e+02
0.0000000000000000e+00 1.0000000000000000e+03
ITEM: ENTRIES c_btype c_bondlen
1 1.16855 
1 0.972553 
ITEM: TIMESTEP
120
ITEM: NUMBER OF ENTRIES
2
ITEM: BOX BOUNDS pp pp pp
0.0000000000000000e+00 1.0000000000000000e+02
0.0000000000000000e+00 1.0000000000000000e+02
0.0000000000000000e+00 1.0000000000000000e+03
ITEM: ENTRIES c_btype c_bondlen
1 1.14025 
1 0.999157 
ITEM: TIMESTEP
125
ITEM: NUMBER OF ENTRIES
2
ITEM: BOX BOUNDS pp pp pp
0.0000000000000000e+00 1.0000000000000000e+02
0.0000000000000000e+00 1.0000000000000000e+02
0.0000000000000000e+00 1.0000000000000000e+03
ITEM: ENTRIES c_btype c_bondlen
1 1.07096 
1 1.09192 
ITEM: TIMESTEP
130
ITEM: NUMBER OF ENTRIES
2
ITEM: BOX BOUNDS pp pp pp
0.0000000000000000e+00 1.0000000000000000e+02
0.0000000000000000e+00 1.0000000000000000e+02
0.0000000000000000e+00 1.0000000000000000e+03
ITEM: ENTRIES c_btype c_bondlen
1 1.03721 
1 1.11945 
ITEM: TIMESTEP
135
ITEM: NUMBER OF ENTRIES
2
ITEM: BOX BOUNDS pp pp pp
0.0000000000000000e+00 1.0000000000000000e+02
0.0000000000000000e+00 1.0000000000000000e+02
0.0000000000000000e+00 1.0000000000000000e+03
ITEM: ENTRIES c_btype c_bondlen
1 1.03303 
1 1.09636 
ITEM: TIMESTEP
140
ITEM: NUMBER OF ENTRIES
2
ITEM: BOX BOUNDS pp pp pp
0.0000000000000000e+00 1.0000000000000000e+02
0.0000000000000000e+00 1.0000000000000000e+02
0.0000000000000000e+00 1.0000000000000000e+03
ITEM: ENTRIES c_btype c_bondlen
1 1.04116 
1 1.03028 
ITEM: TIMESTEP
145
ITEM: NUMBER OF ENTRIES
2
ITEM: BOX BOUNDS pp pp pp
0.0000000000000000e+00 1.0000000000000000e+02
0.0000000000000000e+00 1.0000000000000000e+02
0.0000000000000000e+00 1.0000000000000000e+03
ITEM: ENTRIES c_btype c_bondlen
1 1.04034 
1 0.984367 
ITEM: TIMESTEP
150
ITEM: NUMBER OF ENTRIES
2
ITEM: BOX BOUNDS pp pp pp
0.0000000000000000e+00 1.0000000000000000e+02
0.0000000000000000e+00 1.0000000000000000e+02
0.0000000000000000e+00 1.0000000000000000e+03
ITEM: ENTRIES c_btype c_bondlen
1 1.00581 
1 1.00109 
ITEM: TIMESTEP
155
ITEM: NUMBER OF ENTRIES
2
ITEM: BOX BOUNDS pp pp pp
0.0000000000000000e+00 1.0000000000000000e+02
0.0000000000000000e+00 1.0000000000000000e+02
0.0000000000000000e+00 1.0000000000000000e+03
ITEM: ENTRIES c_btype c_bondlen
1 0.962593 
1 1.03476 
ITEM: TIMESTEP
160
ITEM: NUMBER OF ENTRIES
2
ITEM: BOX BOUNDS pp pp pp
0.0000000000000000e+00 1.0000000000000000e+02
0.0000000000000000e+00 1.0000000000000000e+02
0.0000000000000000e+00 1.0000000000000000e+03
ITEM: ENTRIES c_btype c_bondlen
1 0.952047 
1 1.03853 
ITEM: TIMESTEP
165
ITEM: NUMBER OF ENTRIES
2
ITEM: BOX BOUNDS pp pp pp
0.0000000000000000e+00 1.0000000000000000e+02
0.0000000000000000e+00 1.0000000000000000e+02
0.0000000000000000e+00 1.0000000000000000e+03
ITEM: ENTRIES c_btype c_bondlen
1 0.998302 
1 0.989896 
ITEM: TIMESTEP
170
ITEM: NUMBER OF ENTRIES
2
ITEM: BOX BOUNDS pp pp pp
0.0000000000000000e+00 1.0000000000000000e+02
0.0000000000000000e+00 1.0000000000000000e+02
0.0000000000000000e+00 1.0000000000000000e+03
ITEM: ENTRIES c_btype c_bondlen
1 1.04138 
1 0.963504 
ITEM: TIMESTEP
175
ITEM: NUMBER OF ENTRIES
2
ITEM: BOX BOUNDS pp pp pp
0.0000000000000000e+00 1.0000000000000000e+02
0.0000000000000000e+00 1.0000000000000000e+02
0.0000000000000000e+00 1.0000000000000000e+03
ITEM: ENTRIES c_btype c_bondlen
1 1.04301 
1 0.998225 
ITEM: TIMESTEP
180
ITEM: NUMBER OF ENTRIES
2
ITEM: BOX BOUNDS pp pp pp
0.0000000000000000e+00 1.0000000000000000e+02
0.0000000000000000e+00 1.0000000000000000e+02
0.0000000000000000e+00 1.0000000000000000e+03
ITEM: ENTRIES c_btype c_bondlen
1 1.02652 
1 1.03008 
ITEM: TIMESTEP
185
ITEM: NUMBER OF ENTRIES
2
ITEM: BOX BOUNDS pp pp pp
0.0000000000000000e+00 1.0000000000000000e+02
0.0000000000000000e+00 1.0000000000000000e+02
0.0000000000000000e+00 1.0000000000000000e+03
ITEM: ENTRIES c_btype c_bondlen
1 1.03363 
1 1.03927 
ITEM: TIMESTEP
190
ITEM: NUMBER OF ENTRIES
2
ITEM: BOX BOUNDS pp pp pp
0.0000000000000000e+00 1.0000000000000000e+02
0.0000000000000000e+00 1.0000000000000000e+02
0.0000000000000000e+00 1.0000000000000000e+03
ITEM: ENTRIES c_btype c_bondlen
1 1.01329 
1 1.06637 
ITEM: TIMESTEP
195
ITEM: NUMBER OF ENTRIES
2
ITEM: BOX BOUNDS pp pp pp
0.0000000000000000e+00 1.0000000000000000e+02
0.0000000000000000e+00 1.0000000000000000e+02
0.0000000000000000e+00 1.0000000000000000e+03
ITEM: ENTRIES c_btype c_bondlen
1 0.987487 
1 1.07043 
ITEM: TIMESTEP
200
ITEM: NUMBER OF ENTRIES
2
ITEM: BOX BOUNDS pp pp pp
0.0000000000000000e+00 1.0000000000000000e+02
0.0000000000000000e+00 1.0000000000000000e+02
0.0000000000000000e+00 1.0000000000000000e+03
ITEM: ENTRIES c_btype c_bondlen
1 0.990923 
1 0.991114 
ITEM: TIMESTEP
205
ITEM: NUMBER OF ENTRIES
2
ITEM: BOX BOUNDS pp pp pp
0.0000000000000000e+00 1.0000000000000000e+02
0.0000000000000000e+00 1.0000000000000000e+02
0.0000000000000000e+00 1.0000000000000000e+03
ITEM: ENTRIES c_btype c_bondlen
1 0.993384 
1 0.908934 
ITEM: TIMESTEP
210
ITEM: NUMBER OF ENTRIES
2
ITEM: BOX BOUNDS pp pp pp
0.0000000000000000e+00 1.0000000000000000e+02
0.0000000000000000e+00 1.0000000000000000e+02
0.0000000000000000e+00 1.0000000000000000e+03
ITEM: ENTRIES c_btype c_bondlen
1 0.970889 
1 0.904638 
ITEM: TIMESTEP
215
ITEM: NUMBER OF ENTRIES
2
ITEM: BOX BOUNDS pp pp pp
0.0000000000000000e+00 1.0000000000000000e+02
0.0000000000000000e+00 1.0000000000000000e+02
0.0000000000000000e+00 1.0000000000000000e+03
ITEM: ENTRIES c_btype c_bondlen
1 0.927118 
1 0.946339 
ITEM: TIMESTEP
220
ITEM: NUMBER OF ENTRIES
2
ITEM: BOX BOUNDS pp pp pp
0.0000000000000000e+00 1.0000000000000000e+02
0.0000000000000000e+00 1.0000000000000000e+02
0.0000000000000000e+00 1.0000000000000000e+03
ITEM: ENTRIES c_btype c_bondlen
1 0.90366 
1 1.00441 
ITEM: TIMESTEP
225
ITEM: NUMBER OF ENTRIES
2
ITEM: BOX BOUNDS pp pp pp
0.0000000000000000e+00 1.0000000000000000e+02
0.0000000000000000e+00 1.0000000000000000e+02
0.0000000000000000e+00 1.0000000000000000e+03
ITEM: ENTRIES c_btype c_bondlen
1 0.909539 
1 1.01106 
ITEM: TIMESTEP
230
ITEM: NUMBER OF ENTRIES
2
ITEM: BOX BOUNDS pp pp pp
0.0000000000000000e+00 1.0000000000000000e+02
0.0000000000000000e+00 1.0000000000000000e+02
0.0000000000000000e+00 1.0000000000000000e+03
ITEM: ENTRIES c_btype c_bondlen
1 0.969931 
1 0.959737 
ITEM: TIMESTEP
235
ITEM: NUMBER OF ENTRIES
2
ITEM: BOX BOUNDS pp pp pp
0.0000000000000000e+00 1.0000000000000000e+02
0.0000000000000000e+00 1.0000000000000000e+02
0.0000000000000000e+00 1.0000000000000000e+03
ITEM: ENTRIES c_btype c_bondlen
1 1.03056 
1 0.936015 
ITEM: TIMESTEP
240
ITEM: NUMBER OF ENTRIES
2
ITEM: BOX BOUNDS pp pp pp
0.0000000000000000e+00 1.0000000000000000e+02
0.0000000000000000e+00 1.0000000000000000e+02
0.0000000000000000e+00 1.0000000000000000e+03
ITEM: ENTRIES c_btype c_bondlen
1 1.03218 
1 0.997991 
ITEM: TIMESTEP
245
ITEM: NUMBER OF ENTRIES
2
ITEM: BOX BOUNDS pp pp pp
0.0000000000000000e+00 1.0000000000000000e+02
0.0000000000000000e+00 1.0000000000000000e+02
0.0000000000000000e+00 1.0000000000000000e+03
ITEM: ENTRIES c_btype c_bondlen
1 0.993936 
1 1.06778 
ITEM: TIMESTEP
250
ITEM: NUMBER OF ENTRIES
2
ITEM: BOX BOUNDS pp pp pp
0.0000000000000000e+00 1.0000000000000000e+02
0.0000000000000000e+00 1.0000000000000000e+02
0.0000000000000000e+00 1.0000000000000000e+03
ITEM: ENTRIES c_btype c_bondlen
1 0.989306 
1 1.0806 
ITEM: TIMESTEP
255
ITEM: NUMBER OF ENTRIES
2
ITEM: BOX BOUNDS pp pp pp
0.0000000000000000e+00 1.0000000000000000e+02
0.0000000000000000e+00 1.0000000000000000e+02
0.0000000000000000e+00 1.0000000000000000e+03
ITEM: ENTRIES c_btype c_bondlen
1 1.03274 
1 1.01688 
ITEM: TIMESTEP
260
ITEM: NUMBER OF ENTRIES
2
ITEM: BOX BOUNDS pp pp pp
0.0000000000000000e+00 1.0000000000000000e+02
0.0000000000000000e+00 1.0000000000000000e+02
0.0000000000000000e+00 1.0000000000000000e+03
ITEM: ENTRIES c_btype c_bondlen
1 1.07708 
1 0.952533 
ITEM: TIMESTEP
265
ITEM: NUMBER OF ENTRIES
2
ITEM: BOX BOUNDS pp pp pp
0.0000000000000000e+00 1.0000000000000000e+02
0.0000000000000000e+00 1.0000000000000000e+02
0.0000000000000000e+00 1.0000000000000000e+03
ITEM: ENTRIES c_btype c_bondlen
1 1.05862 
1 0.977927 
ITEM: TIMESTEP
270
ITEM: NUMBER OF ENTRIES
2
ITEM: BOX BOUNDS pp pp pp
0.0000000000000000e+00 1.0000000000000000e+02
0.0000000000000000e+00 1.0000000000000000e+02
0.0000000000000000e+00 1.0000000000000000e+03
ITEM: ENTRIES c_btype c_bondlen
1 0.974218 
1 1.0719 
ITEM: TIMESTEP
275
ITEM: NUMBER OF ENTRIES
2
ITEM: BOX BOUNDS pp pp pp
0.0000000000000000e+00 1.0000000000000000e+02
0.0000000000000000e+00 1.0000000000000000e+02
0.0000000000000000e+00 1.0000000000000000e+03
ITEM: ENTRIES c_btype c_bondlen
1 0.921006 
1 1.1243 
ITEM: TIMESTEP
280
ITEM: NUMBER OF ENTRIES
2
ITEM: BOX BOUNDS pp pp pp
0.0000000000000000e+00 1.0000000000000000e+02
0.0000000000000000e+00 1.0000000000000000e+02
0.0000000000000000e+00 1.0000000000000000e+03
ITEM: ENTRIES c_btype c_bondlen
1 0.969587 
1 1.07697 
ITEM: TIMESTEP
285
ITEM: NUMBER OF ENTRIES
2
ITEM: BOX BOUNDS pp pp pp
0.0000000000000000e+00 1.0000000000000000e+02
0.0000000000000000e+00 1.0000000000000000e+02
0.0000000000000000e+00 1.0000000000000000e+03
ITEM: ENTRIES c_btype c_bondlen
1 1.0657 
1 0.951495 
ITEM: TIMESTEP
290
ITEM: NUMBER OF ENTRIES
2
ITEM: BOX BOUNDS pp pp pp
0.0000000000000000e+00 1.0000000000000000e+02
0.0000000000000000e+00 1.0000000000000000e+02
0.0000000000000000e+00 1.0000000000000000e+03
ITEM: ENTRIES c_btype c_bondlen
1 1.12526 
1 0.862084 
ITEM: TIMESTEP
295
ITEM: NUMBER OF ENTRIES
2
ITEM: BOX BOUNDS pp pp pp
0.0000000000000000e+00 1.0000000000000000e+02
0.0000000000000000e+00 1.0000000000000000e+02
0.0000000000000000e+00 1.0000000000000000e+03
ITEM: ENTRIES c_btype c_bondlen
1 1.04568 
1 0.948954 
ITEM: TIMESTEP
300
ITEM: NUMBER OF ENTRIES
2
ITEM: BOX BOUNDS pp pp pp
0.0000000000000000e+00 1.0000000000000000e+02
0.0000000000000000e+00 1.0000000000000000e+02
0.0000000000000000e+00 1.0000000000000000e+03
ITEM: ENTRIES c_btype c_bondlen
1 0.943838 
1 1.06026 
ITEM: TIMESTEP
305
ITEM: NUMBER OF ENTRIES
2
ITEM: BOX BOUNDS pp pp pp
0.0000000000000000e+00 1.0000000000000000e+02
0.0000000000000000e+00 1.0000000000000000e+02
0.0000000000000000e+00 1.0000000000000000e+03
ITEM: ENTRIES c_btype c_bondlen
1 0.933153 
1 1.09675 
ITEM: TIMESTEP
310
ITEM: NUMBER OF ENTRIES
2
ITEM: BOX BOUNDS pp pp pp
0.0000000000000000e+00 1.0000000000000000e+02
0.0000000000000000e+00 1.0000000000000000e+02
0.0000000000000000e+00 1.0000000000000000e+03
ITEM: ENTRIES c_btype c_bondlen
1 1.0115 
1 1.04568 
ITEM: TIMESTEP
315
ITEM: NUMBER OF ENTRIES
2
ITEM: BOX BOUNDS pp pp pp
0.0000000000000000e+00 1.0000000000000000e+02
0.0000000000000000e+00 1.0000000000000000e+02
0.0000000000000000e+00 1.0000000000000000e+03
ITEM: ENTRIES c_btype c_bondlen
1 1.1012 
1 0.943847 
ITEM: TIMESTEP
320
ITEM: NUMBER OF ENTRIES
2
ITEM: BOX BOUNDS pp pp pp
0.0000000000000000e+00 1.0000000000000000e+02
0.0000000000000000e+00 1.0000000000000000e+02
0.0000000000000000e+00 1.0000000000000000e+03
ITEM: ENTRIES c_btype c_bondlen
1 1.13096 
1 0.926084 
ITEM: TIMESTEP
325
ITEM: NUMBER OF ENTRIES
2
ITEM: BOX BOUNDS pp pp pp
0.0000000000000000e+00 1.0000000000000000e+02
0.0000000000000000e+00 1.0000000000000000e+02
0.0000000000000000e+00 1.0000000000000000e+03
ITEM: ENTRIES c_btype c_bondlen
1 1.05797 
1 1.0195 
ITEM: TIMESTEP
330
ITEM: NUMBER OF ENTRIES
2
ITEM: BOX BOUNDS pp pp pp
0.0000000000000000e+00 1.0000000000000000e+02
0.0000000000000000e+00 1.0000000000000000e+02
0.0000000000000000e+00 1.0000000000000000e+03
ITEM: ENTRIES c_btype c_bondlen
1 0.984237 
1 1.0895 
ITEM: TIMESTEP
335
ITEM: NUMBER OF ENTRIES
2
ITEM: BOX BOUNDS pp pp pp
0.0000000000000000e+00 1.0000000000000000e+02
0.0000000000000000e+00 1.0000000000000000e+02
0.0000000000000000e+00 1.0000000000000000e+03
ITEM: ENTRIES c_btype c_bondlen
1 0.961244 
1 1.11565 
ITEM: TIMESTEP
340
ITEM: NUMBER OF ENTRIES
2
ITEM: BOX BOUNDS pp pp pp
0.0000000000000000e+00 1.0000000000000000e+02
0.0000000000000000e+00 1.0000000000000000e+02
0.0000000000000000e+00 1.0000000000000000e+03
ITEM: ENTRIES c_btype c_bondlen
1 0.997332 
1 1.04888 
ITEM: TIMESTEP
345
ITEM: NUMBER OF ENTRIES
2
ITEM: BOX BOUNDS pp pp pp
0.0000000000000000e+00 1.0000000000000000e+02
0.0000000000000000e+00 1.0000000000000000e+02
0.0000000000000000e+00 1.0000000000000000e+03
ITEM: ENTRIES c_btype c_bondlen
1 1.03415 
1 0.96365 
ITEM: TIMESTEP
350
ITEM: NUMBER OF ENTRIES
2
ITEM: BOX BOUNDS pp pp pp
0.0000000000000000e+00 1.0000000000000000e+02
0.0000000000000000e+00 1.0000000000000000e+02
0.0000000000000000e+00 1.0000000000000000e+03
ITEM: ENTRIES c_btype c_bondlen
1 1.03168 
1 0.901026 
ITEM: TIMESTEP
355
ITEM: NUMBER OF ENTRIES
2
ITEM: BOX BOUNDS pp pp pp
0.0000000000000000e+00 1.0000000000000000e+02
0.0000000000000000e+00 1.0000000000000000e+02
0.0000000000000000e+00 1.0000000000000000e+03
ITEM: ENTRIES c_btype c_bondlen
1 0.98314 
1 0.916376 
ITEM: TIMESTEP
360
ITEM: NUMBER OF ENTRIES
2
ITEM: BOX BOUNDS pp pp pp
0.0000000000000000e+00 1.0000000000000000e+02
0.0000000000000000e+00 1.0000000000000000e+02
0.0000000000000000e+00 1.0000000000000000e+03
ITEM: ENTRIES c_btype c_bondlen
1 0.897925 
1 1.01832 
ITEM: TIMESTEP
365
ITEM: NUMBER OF ENTRIES
2
ITEM: BOX BOUNDS pp pp pp
0.0000000000000000e+00 1.0000000000000000e+02
0.0000000000000000e+00 1.0000000000000000e+02
0.0000000000000000e+00 1.0000000000000000e+03
ITEM: ENTRIES c_btype c_bondlen
1 0.864639 
1 1.06936 
ITEM: TIMESTEP
370
ITEM: NUMBER OF ENTRIES
2
ITEM: BOX BOUNDS pp pp pp
0.0000000000000000e+00 1.0000000000000000e+02
0.0000000000000000e+00 1.0000000000000000e+02
0.0000000000000000e+00 1.0000000000000000e+03
ITEM: ENTRIES c_btype c_bondlen
1 0.928463 
1 0.991257 
ITEM: TIMESTEP
375
ITEM: NUMBER OF ENTRIES
2
ITEM: BOX BOUNDS pp pp pp
0.0000000000000000e+00 1.0000000000000000e+02
0.0000000000000000e+00 1.0000000000000000e+02
0.0000000000000000e+00 1.0000000000000000e+03
ITEM: ENTRIES c_btype c_bondlen
1 1.0334 
1 0.903553 
ITEM: TIMESTEP
380
ITEM: NUMBER OF ENTRIES
2
ITEM: BOX BOUNDS pp pp pp
0.0000000000000000e+00 1.0000000000000000e+02
0.0000000000000000e+00 1.0000000000000000e+02
0.0000000000000000e+00 1.0000000000000000e+03
ITEM: ENTRIES c_btype c_bondlen
1 1.09776 
1 0.875308 
ITEM: TIMESTEP
385
ITEM: NUMBER OF ENTRIES
2
ITEM: BOX BOUNDS pp pp pp
0.0000000000000000e+00 1.0000000000000000e+02
0.0000000000000000e+00 1.0000000000000000e+02
0.0000000000000000e+00 1.0000000000000000e+03
ITEM: ENTRIES c_btype c_bondlen
1 1.07084 
1 0.99104 
ITEM: TIMESTEP
390
ITEM: NUMBER OF ENTRIES
2
ITEM: BOX BOUNDS pp pp pp
0.0000000000000000e+00 1.0000000000000000e+02
0.0000000000000000e+00 1.0000000000000000e+02
0.0000000000000000e+00 1.0000000000000000e+03
ITEM: ENTRIES c_btype c_bondlen
1 1.03242 
1 1.11643 
ITEM: TIMESTEP
395
ITEM: NUMBER OF ENTRIES
2
ITEM: BOX BOUNDS pp pp pp
0.0000000000000000e+00 1.0000000000000000e+02
0.0000000000000000e+00 1.0000000000000000e+02
0.0000000000000000e+00 1.0000000000000000e+03
ITEM: ENTRIES c_btype c_bondlen
1 1.02058 
1 1.16715 
ITEM: TIMESTEP
400
ITEM: NUMBER OF ENTRIES
2
ITEM: BOX BOUNDS pp pp pp
0.0000000000000000e+00 1.0000000000000000e+02
0.0000000000000000e+00 1.0000000000000000e+02
0.0000000000000000e+00 1.0000000000000000e+03
ITEM: ENTRIES c_btype c_bondlen
1 1.05508 
1 1.13568 
ITEM: TIMESTEP
405
ITEM: NUMBER OF ENTRIES
2
ITEM: BOX BOUNDS pp pp pp
0.0000000000000000e+00 1.0000000000000000e+02
0.0000000000000000e+00 1.0000000000000000e+02
0.0000000000000000e+00 1.0000000000000000e+03
ITEM: ENTRIES c_btype c_bondlen
1 1.13046 
1 1.03021 
ITEM: TIMESTEP
410
ITEM: NUMBER OF ENTRIES
2
ITEM: BOX BOUNDS pp pp pp
0.0000000000000000e+00 1.0000000000000000e+02
0.0000000000000000e+00 1.0000000000000000e+02
0.0000000000000000e+00 1.0000000000000000e+03
ITEM: ENTRIES c_btype c_bondlen
1 1.15739 
1 0.962716 
ITEM: TIMESTEP
415
ITEM: NUMBER OF ENTRIES
2
ITEM: BOX BOUNDS pp pp pp
0.0000000000000000e+00 1.0000000000000000e+02
0.0000000000000000e+00 1.0000000000000000e+02
0.0000000000000000e+00 1.0000000000000000e+03
ITEM: ENTRIES c_btype c_bondlen
1 1.07759 
1 1.02551 
ITEM: TIMESTEP
420
ITEM: NUMBER OF ENTRIES
2
ITEM: BOX BOUNDS pp pp pp
0.0000000000000000e+00 1.0000000000000000e+02
0.0000000000000000e+00 1.0000000000000000e+02
0.0000000000000000e+00 1.0000000000000000e+03
ITEM: ENTRIES c_btype c_bondlen
1 0.971961 
1 1.10054 
ITEM: TIMESTEP
425
ITEM: NUMBER OF ENTRIES
2
ITEM: BOX BOUNDS pp pp pp
0.0000000000000000e+00 1.0000000000000000e+02
0.0000000000000000e+00 1.0000000000000000e+02
0.0000000000000000e+00 1.0000000000000000e+03
ITEM: ENTRIES c_btype c_bondlen
1 0.970136 
1 1.06762 
ITEM: TIMESTEP
430
ITEM: NUMBER OF ENTRIES
2
ITEM: BOX BOUNDS pp pp pp
0.0000000000000000e+00 1.0000000000000000e+02
0.0000000000000000e+00 1.0000000000000000e+02
0.0000000000000000e+00 1.0000000000000000e+03
ITEM: ENTRIES c_btype c_bondlen
1 1.02801 
1 0.964087 
ITEM: TIMESTEP
435
ITEM: NUMBER OF ENTRIES
2
ITEM: BOX BOUNDS pp pp pp
0.0000000000000000e+00 1.0000000000000000e+02
0.0000000000000000e+00 1.0000000000000000e+02
0.0000000000000000e+00 1.0000000000000000e+03
ITEM: ENTRIES c_btype c_bondlen
1 1.04916 
1 0.913564 
ITEM: TIMESTEP
440
ITEM: NUMBER OF ENTRIES
2
ITEM: BOX BOUNDS pp pp pp
0.0000000000000000e+00 1.0000000000000000e+02
0.0000000000000000e+00 1.0000000000000000e+02
0.0000000000000000e+00 1.0000000000000000e+03
ITEM: ENTRIES c_btype c_bondlen
1 0.987691 
1 0.950862 
ITEM: TIMESTEP
445
ITEM: NUMBER OF ENTRIES
2
ITEM: BOX BOUNDS pp pp pp
0.0000000000000000e+00 1.0000000000000000e+02
0.0000000000000000e+00 1.0000000000000000e+02
0.0000000000000000e+00 1.0000000000000000e+03
ITEM: ENTRIES c_btype c_bondlen
1 0.920129 
1 1.03472 
ITEM: TIMESTEP
450
ITEM: NUMBER OF ENTRIES
2
ITEM: BOX BOUNDS pp pp pp
0.0000000000000000e+00 1.0000000000000000e+02
0.0000000000000000e+00 1.0000000000000000e+02
0.0000000000000000e+00 1.0000000000000000e+03
ITEM: ENTRIES c_btype c_bondlen
1 0.912792 
1 1.10737 
ITEM: TIMESTEP
455
ITEM: NUMBER OF ENTRIES
2
ITEM: BOX BOUNDS pp pp pp
0.0000000000000000e+00 1.0000000000000000e+02
0.0000000000000000e+00 1.0000000000000000e+02
0.0000000000000000e+00 1.0000000000000000e+03
ITEM: ENTRIES c_btype c_bondlen
1 0.981015 
1 1.07706 
ITEM: TIMESTEP
460
ITEM: NUMBER OF ENTRIES
2
ITEM: BOX BOUNDS pp pp pp
0.0000000000000000e+00 1.0000000000000000e+02
0.0000000000000000e+00 1.0000000000000000e+02
0.0000000000000000e+00 1.0000000000000000e+03
ITEM: ENTRIES c_btype c_bondlen
1 1.09549 
1 0.954666 
ITEM: TIMESTEP
465
ITEM: NUMBER OF ENTRIES
2
ITEM: BOX BOUNDS pp pp pp
0.0000000000000000e+00 1.0000000000000000e+02
0.0000000000000000e+00 1.0000000000000000e+02
0.0000000000000000e+00 1.0000000000000000e+03
ITEM: ENTRIES c_btype c_bondlen
1 1.14159 
1 0.882503 
ITEM: TIMESTEP
470
ITEM: NUMBER OF ENTRIES
2
ITEM: BOX BOUNDS pp pp pp
0.0000000000000000e+00 1.0000000000000000e+02
0.0000000000000000e+00 1.0000000000000000e+02
0.0000000000000000e+00 1.0000000000000000e+03
ITEM: ENTRIES c_btype c_bondlen
1 1.05943 
1 0.97888 
ITEM: TIMESTEP
475
ITEM: NUMBER OF ENTRIES
2
ITEM: BOX BOUNDS pp pp pp
0.0000000000000000e+00 1.0000000000000000e+02
0.0000000000000000e+00 1.0000000000000000e+02
0.0000000000000000e+00 1.0000000000000000e+03
ITEM: ENTRIES c_btype c_bondlen
1 0.953486 
1 1.10622 
ITEM: TIMESTEP
480
ITEM: NUMBER OF ENTRIES
2
ITEM: BOX BOUNDS pp pp pp
0.0000000000000000e+00 1.0000000000000000e+02
0.0000000000000000e+00 1.0000000000000000e+02
0.0000000000000000e+00 1.0000000000000000e+03
ITEM: ENTRIES c_btype c_bondlen
1 0.903655 
1 1.13867 
ITEM: TIMESTEP
485
ITEM: NUMBER OF ENTRIES
2
ITEM: BOX BOUNDS pp pp pp
0.0000000000000000e+00 1.0000000000000000e+02
0.0000000000000000e+00 1.0000000000000000e+02
0.0000000000000000e+00 1.0000000000000000e+03
ITEM: ENTRIES c_btype c_bondlen
1 0.979473 
1 1.02211 
ITEM: TIMESTEP
490
ITEM: NUMBER OF ENTRIES
2
ITEM: BOX BOUNDS pp pp pp
0.0000000000000000e+00 1.0000000000000000e+02
0.0000000000000000e+00 1.0000000000000000e+02
0.0000000000000000e+00 1.0000000000000000e+03
ITEM: ENTRIES c_btype c_bondlen
1 1.07416 
1 0.867842 
ITEM: TIMESTEP
495
ITEM: NUMBER OF ENTRIES
2
ITEM: BOX BOUNDS pp pp pp
0.0000000000000000e+00 1.0000000000000000e+02
0.0000000000000000e+00 1.0000000000000000e+02
0.0000000000000000e+00 1.0000000000000000e+03
ITEM: ENTRIES c_btype c_bondlen
1 1.06555 
1 0.861441 
ITEM: TIMESTEP
500
ITEM: NUMBER OF ENTRIES
2
ITEM: BOX BOUNDS pp pp pp
0.0000000000000000e+00 1.0000000000000000e+02
0.0000000000000000e+00 1.0000000000000000e+02
0.0000000000000000e+00 1.0000000000000000e+03
ITEM: ENTRIES c_btype c_bondlen
1 0.967334 
1 0.960302 
ITEM: TIMESTEP
505
ITEM: NUMBER OF ENTRIES
2
ITEM: BOX BOUNDS pp pp pp
0.0000000000000000e+00 1.0000000000000000e+02
0.0000000000000000e+00 1.0000000000000000e+02
0.0000000000000000e+00 1.0000000000000000e+03
ITEM: ENTRIES c_btype c_bondlen
1 0.873635 
1 1.07345 
ITEM: TIMESTEP
510
ITEM: NUMBER OF ENTRIES
2
ITEM: BOX BOUNDS pp pp pp
0.0000000000000000e+00 1.0000000000000000e+02
0.0000000000000000e+00 1.0000000000000000e+02
0.0000000000000000e+00 1.0000000000000000e+03
ITEM: ENTRIES c_btype c_bondlen
1 0.8824 
1 1.06334 
ITEM: TIMESTEP
515
ITEM: NUMBER OF ENTRIES
2
ITEM: BOX BOUNDS pp pp pp
0.0000000000000000e+00 1.0000000000000000e+02
0.0000000000000000e+00 1.0000000000000000e+02
0.0000000000000000e+00 1.0000000000000000e+03
ITEM: ENTRIES c_btype c_bondlen
1 0.975229 
1 0.970098 
ITEM: TIMESTEP
520
ITEM: NUMBER OF ENTRIES
2
ITEM: BOX BOUNDS pp pp pp
0.0000000000000000e+00 1.0000000000000000e+02
0.0000000000000000e+00 1.0000000000000000e+02
0.0000000000000000e+00 1.0000000000000000e+03
ITEM: ENTRIES c_btype c_bondlen
1 1.07355 
1 0.891545 
ITEM: TIMESTEP
525
ITEM: NUMBER OF ENTRIES
2
ITEM: BOX BOUNDS pp pp pp
0.0000000000000000e+00 1.0000000000000000e+02
0.0000000000000000e+00 1.0000000000000000e+02
0.0000000000000000e+00 1.0000000000000000e+03
ITEM: ENTRIES c_btype c_bondlen
1 1.07403 
1 0.923219 
ITEM: TIMESTEP
530
ITEM: NUMBER OF ENTRIES
2
ITEM: BOX BOUNDS pp pp pp
0.0000000000000000e+00 1.0000000000000000e+02
0.0000000000000000e+00 1.0000000000000000e+02
0.0000000000000000e+00 1.0000000000000000e+03
ITEM: ENTRIES c_btype c_bondlen
1 0.985382 
1 1.07105 
ITEM: TIMESTEP
535
ITEM: NUMBER OF ENTRIES
2
ITEM: BOX BOUNDS pp pp pp
0.0000000000000000e+00 1.0000000000000000e+02
0.0000000000000000e+00 1.0000000000000000e+02
0.0000000000000000e+00 1.0000000000000000e+03
ITEM: ENTRIES c_btype c_bondlen
1 0.929948 
1 1.16175 
ITEM: TIMESTEP
540
ITEM: NUMBER OF ENTRIES
2
ITEM: BOX BOUNDS pp pp pp
0.0000000000000000e+00 1.0000000000000000e+02
0.0000000000000000e+00 1.0000000000000000e+02
0.0000000000000000e+00 1.0000000000000000e+03
ITEM: ENTRIES c_btype c_bondlen
1 0.981546 
1 1.11695 
ITEM: TIMESTEP
545
ITEM: NUMBER OF ENTRIES
2
ITEM: BOX BOUNDS pp pp pp
0.0000000000000000e+00 1.0000000000000000e+02
0.0000000000000000e+00 1.0000000000000000e+02
0.0000000000000000e+00 1.0000000000000000e+03
ITEM: ENTRIES c_btype c_bondlen
1 1.08242 
1 1.01195 
ITEM: TIMESTEP
550
ITEM: NUMBER OF ENTRIES
2
ITEM: BOX BOUNDS pp pp pp
0.0000000000000000e+00 1.0000000000000000e+02
0.0000000000000000e+00 1.0000000000000000e+02
0.0000000000000000e+00 1.0000000000000000e+03
ITEM: ENTRIES c_btype c_bondlen
1 1.15004 
1 0.926583 
ITEM: TIMESTEP
555
ITEM: NUMBER OF ENTRIES
2
ITEM: BOX BOUNDS pp pp pp
0.0000000000000000e+00 1.0000000000000000e+02
0.0000000000000000e+00 1.0000000000000000e+02
0.0000000000000000e+00 1.0000000000000000e+03
ITEM: ENTRIES c_btype c_bondlen
1 1.11741 
1 0.955289 
ITEM: TIMESTEP
560
ITEM: NUMBER OF ENTRIES
2
ITEM: BOX BOUNDS pp pp pp
0.0000000000000000e+00 1.0000000000000000e+02
0.0000000000000000e+00 1.0000000000000000e+02
0.0000000000000000e+00 1.0000000000000000e+03
ITEM: ENTRIES c_btype c_bondlen
1 1.00832 
1 1.09525 
ITEM: TIMESTEP
565
ITEM: NUMBER OF ENTRIES
2
ITEM: BOX BOUNDS pp pp pp
0.0000000000000000e+00 1.0000000000000000e+02
0.0000000000000000e+00 1.0000000000000000e+02
0.0000000000000000e+00 1.0000000000000000e+03