ITEM: TIMESTEP
0
ITEM: NUMBER OF ENTRIES
2
ITEM: BOX BOUNDS pp pp pp
0.0000000000000000e+00 1.0000000000000000e+02
0.0000000000000000e+00 1.0000000000000000e+02
0.0000000000000000e+00 1.0000000000000000e+03
ITEM: ENTRIES c_btype c_bondlen
1 1 
1 1 
ITEM: TIMESTEP
100
ITEM: NUMBER OF ENTRIES
2
ITEM: BOX BOUNDS pp pp pp
0.0000000000000000e+00 1.0000000000000000e+02
0.0000000000000000e+00 1.0000000000000000e+02
0.0000000000000000e+00 1.0000000000000000e+03
ITEM: ENTRIES c_btype c_bondlen
1 1.06265 
1 1.18368 
ITEM: TIMESTEP
200
ITEM: NUMBER OF ENTRIES
2
ITEM: BOX BOUNDS pp pp pp
0.0000000000000000e+00 1.0000000000000000e+02
0.0000000000000000e+00 1.0000000000000000e+02
0.0000000000000000e+00 1.0000000000000000e+03
ITEM: ENTRIES c_btype c_bondlen
1 0.987756 
1 1.15909 
ITEM: TIMESTEP
300
ITEM: NUMBER OF ENTRIES
2
ITEM: BOX BOUNDS pp pp pp
0.0000000000000000e+00 1.0000000000000000e+02
0.0000000000000000e+00 1.0000000000000000e+02
0.0000000000000000e+00 1.0000000000000000e+03
ITEM: ENTRIES c_btype c_bondlen
1 0.923934 
1 0.982815 
ITEM: TIMESTEP
400
ITEM: NUMBER OF ENTRIES
2
ITEM: BOX BOUNDS pp pp pp
0.0000000000000000e+00 1.0000000000000000e+02
0.0000000000000000e+00 1.0000000000000000e+02
0.0000000000000000e+00 1.0000000000000000e+03
ITEM: ENTRIES c_btype c_bondlen
1 1.12868 
1 0.932906 
ITEM: TIMESTEP
500
ITEM: NUMBER OF ENTRIES
2
ITEM: BOX BOUNDS pp pp pp
0.0000000000000000e+00 1.0000000000000000e+02
0.0000000000000000e+00 1.0000000000000000e+02
0.0000000000000000e+00 1.0000000000000000e+03
ITEM: ENTRIES c_btype c_bondlen
1 1.22153 
1 1.06522 
ITEM: TIMESTEP
600
ITEM: NUMBER OF ENTRIES
2
ITEM: BOX BOUNDS pp pp pp
0.0000000000000000e+00 1.0000000000000000e+02
0.0000000000000000e+00 1.0000000000000000e+02
0.0000000000000000e+00 1.0000000000000000e+03
ITEM: ENTRIES c_btype c_bondlen
1 1.20745 
1 1.10173 
ITEM: TIMESTEP
700
ITEM: NUMBER OF ENTRIES
2
ITEM: BOX BOUNDS pp pp pp
0.0000000000000000e+00 1.0000000000000000e+02
0.0000000000000000e+00 1.0000000000000000e+02
0.0000000000000000e+00 1.0000000000000000e+03
ITEM: ENTRIES c_btype c_bondlen
1 1.07826 
1 0.850464 
ITEM: TIMESTEP
800
ITEM: NUMBER OF ENTRIES
2
ITEM: BOX BOUNDS pp pp pp
0.0000000000000000e+00 1.0000000000000000e+02
0.0000000000000000e+00 1.0000000000000000e+02
0.0000000000000000e+00 1.0000000000000000e+03
ITEM: ENTRIES c_btype c_bondlen
1 1.05654 
1 0.894695 
ITEM: TIMESTEP
900
ITEM: NUMBER OF ENTRIES
2
ITEM: BOX BOUNDS pp pp pp
0.0000000000000000e+00 1.0000000000000000e+02
0.0000000000000000e+00 1.0000000000000000e+02
0.0000000000000000e+00 1.0000000000000000e+03
ITEM: ENTRIES c_btype c_bondlen
1 1.17411 
1 0.766368 
ITEM: TIMESTEP
1000
ITEM: NUMBER OF ENTRIES
2
ITEM: BOX BOUNDS pp pp pp
0.0000000000000000e+00 1.0000000000000000e+02
0.0000000000000000e+00 1.0000000000000000e+02
0.0000000000000000e+00 1.0000000000000000e+03
ITEM: ENTRIES c_btype c_bondlen
1 1.31576 
1 0.939437 
ITEM: TIMESTEP
1100
ITEM: NUMBER OF ENTRIES
2
ITEM: BOX BOUNDS pp pp pp
0.0000000000000000e+00 1.0000000000000000e+02
0.0000000000000000e+00 1.0000000000000000e+02
0.0000000000000000e+00 1.0000000000000000e+03
ITEM: ENTRIES c_btype c_bondlen
1 1.19338 
1 0.730076 
ITEM: TIMESTEP
1200
ITEM: NUMBER OF ENTRIES
2
ITEM: BOX BOUNDS pp pp pp
0.0000000000000000e+00 1.0000000000000000e+02
0.0000000000000000e+00 1.0000000000000000e+02
0.0000000000000000e+00 1.0000000000000000e+03
ITEM: ENTRIES c_btype c_bondlen
1 1.12286 
1 0.767042 
ITEM: TIMESTEP
1300
ITEM: NUMBER OF ENTRIES
2
ITEM: BOX BOUNDS pp pp pp
0.0000000000000000e+00 1.0000000000000000e+02
0.0000000000000000e+00 1.0000000000000000e+02
0.0000000000000000e+00 1.0000000000000000e+03
ITEM: ENTRIES c_btype c_bondlen
1 1.09132 
1 0.913595 
ITEM: TIMESTEP
1400
ITEM: NUMBER OF ENTRIES
2
ITEM: BOX BOUNDS pp pp pp
0.0000000000000000e+00 1.0000000000000000e+02
0.0000000000000000e+00 1.0000000000000000e+02
0.0000000000000000e+00 1.0000000000000000e+03
ITEM: ENTRIES c_btype c_bondlen
1 1.25306 
1 0.798254 
ITEM: TIMESTEP
1500
ITEM: NUMBER OF ENTRIES
2
ITEM: BOX BOUNDS pp pp pp
0.0000000000000000e+00 1.0000000000000000e+02
0.0000000000000000e+00 1.0000000000000000e+02
0.0000000000000000e+00 1.0000000000000000e+03
ITEM: ENTRIES c_btype c_bondlen
1 1.16866 
1 0.882826 
ITEM: TIMESTEP
1600
ITEM: NUMBER OF ENTRIES
2
ITEM: BOX BOUNDS pp pp pp
0.0000000000000000e+00 1.0000000000000000e+02
0.0000000000000000e+00 1.0000000000000000e+02
0.0000000000000000e+00 1.0000000000000000e+03
ITEM: ENTRIES c_btype c_bondlen
1 1.09212 
1 0.802123 
ITEM: TIMESTEP
1700
ITEM: NUMBER OF ENTRIES
2
ITEM: BOX BOUNDS pp pp pp
0.0000000000000000e+00 1.0000000000000000e+02
0.0000000000000000e+00 1.0000000000000000e+02
0.0000000000000000e+00 1.0000000000000000e+03
ITEM: ENTRIES c_btype c_bondlen
1 1.19492 
1 0.959333 
ITEM: TIMESTEP
1800
ITEM: NUMBER OF ENTRIES
2
ITEM: BOX BOUNDS pp pp pp
0.0000000000000000e+00 1.0000000000000000e+02
0.0000000000000000e+00 1.0000000000000000e+02
0.0000000000000000e+00 1.0000000000000000e+03
ITEM: ENTRIES c_btype c_bondlen
1 1.08569 
1 0.891307 
ITEM: TIMESTEP
1900
ITEM: NUMBER OF ENTRIES
2
ITEM: BOX BOUNDS pp pp pp
0.0000000000000000e+00 1.0000000000000000e+02
0.0000000000000000e+00 1.0000000000000000e+02
0.0000000000000000e+00 1.0000000000000000e+03
ITEM: ENTRIES c_btype c_bondlen
1 1.02516 
1 1.0756 
ITEM: TIMESTEP
2000
ITEM: NUMBER OF ENTRIES
2
ITEM: BOX BOUNDS pp pp pp
0.0000000000000000e+00 1.0000000000000000e+02
0.0000000000000000e+00 1.0000000000000000e+02
0.0000000000000000e+00 1.0000000000000000e+03
ITEM: ENTRIES c_btype c_bondlen
1 1.04951 
1 0.995535 
ITEM: TIMESTEP
2100
ITEM: NUMBER OF ENTRIES
2
ITEM: BOX BOUNDS pp pp pp
0.0000000000000000e+00 1.0000000000000000e+02
0.0000000000000000e+00 1.0000000000000000e+02
0.0000000000000000e+00 1.0000000000000000e+03
ITEM: ENTRIES c_btype c_bondlen
1 0.990893 
1 1.02247 
ITEM: TIMESTEP
2200
ITEM: NUMBER OF ENTRIES
2
ITEM: BOX BOUNDS pp pp pp
0.0000000000000000e+00 1.0000000000000000e+02
0.0000000000000000e+00 1.0000000000000000e+02
0.0000000000000000e+00 1.0000000000000000e+03
ITEM: ENTRIES c_btype c_bondlen
1 1.16719 
1 1.12494 
ITEM: TIMESTEP
2300
ITEM: NUMBER OF ENTRIES
2
ITEM: BOX BOUNDS pp pp pp
0.0000000000000000e+00 1.0000000000000000e+02
0.0000000000000000e+00 1.0000000000000000e+02
0.0000000000000000e+00 1.0000000000000000e+03
ITEM: ENTRIES c_btype c_bondlen
1 1.09124 
1 1.07126 
ITEM: TIMESTEP
2400
ITEM: NUMBER OF ENTRIES
2
ITEM: BOX BOUNDS pp pp pp
0.0000000000000000e+00 1.0000000000000000e+02
0.0000000000000000e+00 1.0000000000000000e+02
0.0000000000000000e+00 1.0000000000000000e+03
ITEM: ENTRIES c_btype c_bondlen
1 1.08403 
1 0.995378 
ITEM: TIMESTEP
2500
ITEM: NUMBER OF ENTRIES
2
ITEM: BOX BOUNDS pp pp pp
0.0000000000000000e+00 1.0000000000000000e+02
0.0000000000000000e+00 1.0000000000000000e+02
0.0000000000000000e+00 1.0000000000000000e+03
ITEM: ENTRIES c_btype c_bondlen
1 1.1062 
1 1.28517 
ITEM: TIMESTEP
2600
ITEM: NUMBER OF ENTRIES
2
ITEM: BOX BOUNDS pp pp pp
0.0000000000000000e+00 1.0000000000000000e+02
0.0000000000000000e+00 1.0000000000000000e+02
0.0000000000000000e+00 1.0000000000000000e+03
ITEM: ENTRIES c_btype c_bondlen
1 0.960309 
1 0.93128 
ITEM: TIMESTEP
2700
ITEM: NUMBER OF ENTRIES
2
ITEM: BOX BOUNDS pp pp pp
0.0000000000000000e+00 1.0000000000000000e+02
0.0000000000000000e+00 1.0000000000000000e+02
0.0000000000000000e+00 1.0000000000000000e+03
ITEM: ENTRIES c_btype c_bondlen
1 1.31383 
1 1.03236 
ITEM: TIMESTEP
2800
ITEM: NUMBER OF ENTRIES
2
ITEM: BOX BOUNDS pp pp pp
0.0000000000000000e+00 1.0000000000000000e+02
0.0000000000000000e+00 1.0000000000000000e+02
0.0000000000000000e+00 1.0000000000000000e+03
ITEM: ENTRIES c_btype c_bondlen
1 1.15892 
1 0.855137 
ITEM: TIMESTEP
2900
ITEM: NUMBER OF ENTRIES
2
ITEM: BOX BOUNDS pp pp pp
0.0000000000000000e+00 1.0000000000000000e+02
0.0000000000000000e+00 1.0000000000000000e+02
0.0000000000000000e+00 1.0000000000000000e+03
ITEM: ENTRIES c_btype c_bondlen
1 0.931365 
1 0.969314 
ITEM: TIMESTEP
3000
ITEM: NUMBER OF ENTRIES
2
ITEM: BOX BOUNDS pp pp pp
0.0000000000000000e+00 1.0000000000000000e+02
0.0000000000000000e+00 1.0000000000000000e+02
0.0000000000000000e+00 1.0000000000000000e+03
ITEM: ENTRIES c_btype c_bondlen
1 1.05067 
1 1.07795 
ITEM: TIMESTEP
3100
ITEM: NUMBER OF ENTRIES
2
ITEM: BOX BOUNDS pp pp pp
0.0000000000000000e+00 1.0000000000000000e+02
0.0000000000000000e+00 1.0000000000000000e+02
0.0000000000000000e+00 1.0000000000000000e+03
ITEM: ENTRIES c_btype c_bondlen
1 0.936955 
1 1.10634 
ITEM: TIMESTEP
3200
ITEM: NUMBER OF ENTRIES
2
ITEM: BOX BOUNDS pp pp pp
0.0000000000000000e+00 1.0000000000000000e+02
0.0000000000000000e+00 1.0000000000000000e+02
0.0000000000000000e+00 1.0000000000000000e+03
ITEM: ENTRIES c_btype c_bondlen
1 0.822888 
1 0.99412 
ITEM: TIMESTEP
3300
ITEM: NUMBER OF ENTRIES
2
ITEM: BOX BOUNDS pp pp pp
0.0000000000000000e+00 1.0000000000000000e+02
0.0000000000000000e+00 1.0000000000000000e+02
0.0000000000000000e+00 1.0000000000000000e+03
ITEM: ENTRIES c_btype c_bondlen
1 0.928217 
1 1.11129 
ITEM: TIMESTEP
3400
ITEM: NUMBER OF ENTRIES
2
ITEM: BOX BOUNDS pp pp pp
0.0000000000000000e+00 1.0000000000000000e+02
0.0000000000000000e+00 1.0000000000000000e+02
0.0000000000000000e+00 1.0000000000000000e+03
ITEM: ENTRIES c_btype c_bondlen
1 0.961912 
1 1.24457 
ITEM: TIMESTEP
3500
ITEM: NUMBER OF ENTRIES
2
ITEM: BOX BOUNDS pp pp pp
0.0000000000000000e+00 1.0000000000000000e+02
0.0000000000000000e+00 1.0000000000000000e+02
0.0000000000000000e+00 1.0000000000000000e+03
ITEM: ENTRIES c_btype c_bondlen
1 0.757229 
1 1.20253 
ITEM: TIMESTEP
3600
ITEM: NUMBER OF ENTRIES
2
ITEM: BOX BOUNDS pp pp pp
0.0000000000000000e+00 1.0000000000000000e+02
0.0000000000000000e+00 1.0000000000000000e+02
0.0000000000000000e+00 1.0000000000000000e+03
ITEM: ENTRIES c_btype c_bondlen
1 0.939407 
1 1.2131 
ITEM: TIMESTEP
3700
ITEM: NUMBER OF ENTRIES
2
ITEM: BOX BOUNDS pp pp pp
0.0000000000000000e+00 1.0000000000000000e+02
0.0000000000000000e+00 1.0000000000000000e+02
0.0000000000000000e+00 1.0000000000000000e+03
ITEM: ENTRIES c_btype c_bondlen
1 1.05345 
1 1.10486 
ITEM: TIMESTEP
3800
ITEM: NUMBER OF ENTRIES
2
ITEM: BOX BOUNDS pp pp pp
0.0000000000000000e+00 1.0000000000000000e+02
0.0000000000000000e+00 1.0000000000000000e+02
0.0000000000000000e+00 1.0000000000000000e+03
ITEM: ENTRIES c_btype c_bondlen
1 1.09938 
1 1.08782 
ITEM: TIMESTEP
3900
ITEM: NUMBER OF ENTRIES
2
ITEM: BOX BOUNDS pp pp pp
0.0000000000000000e+00 1.0000000000000000e+02
0.0000000000000000e+00 1.0000000000000000e+02
0.0000000000000000e+00 1.0000000000000000e+03
ITEM: ENTRIES c_btype c_bondlen
1 0.86231 
1 0.989666 
ITEM: TIMESTEP
4000
ITEM: NUMBER OF ENTRIES
2
ITEM: BOX BOUNDS pp pp pp
0.0000000000000000e+00 1.0000000000000000e+02
0.0000000000000000e+00 1.0000000000000000e+02
0.0000000000000000e+00 1.0000000000000000e+03
ITEM: ENTRIES c_btype c_bondlen
1 1.02213 
1 1.07114 
ITEM: TIMESTEP
4100
ITEM: NUMBER OF ENTRIES
2
ITEM: BOX BOUNDS pp pp pp
0.0000000000000000e+00 1.0000000000000000e+02
0.0000000000000000e+00 1.0000000000000000e+02
0.0000000000000000e+00 1.0000000000000000e+03
ITEM: ENTRIES c_btype c_bondlen
1 1.22406 
1 1.11336 
ITEM: TIMESTEP
4200
ITEM: NUMBER OF ENTRIES
2
ITEM: BOX BOUNDS pp pp pp
0.0000000000000000e+00 1.0000000000000000e+02
0.0000000000000000e+00 1.0000000000000000e+02
0.0000000000000000e+00 1.0000000000000000e+03
ITEM: ENTRIES c_btype c_bondlen
1 1.00303 
1 0.965646 
ITEM: TIMESTEP
4300
ITEM: NUMBER OF ENTRIES
2
ITEM: BOX BOUNDS pp pp pp
0.0000000000000000e+00 1.0000000000000000e+02
0.0000000000000000e+00 1.0000000000000000e+02
0.0000000000000000e+00 1.0000000000000000e+03
ITEM: ENTRIES c_btype c_bondlen
1 1.04198 
1 1.04693 
ITEM: TIMESTEP
4400
ITEM: NUMBER OF ENTRIES
2
ITEM: BOX BOUNDS pp pp pp
0.0000000000000000e+00 1.0000000000000000e+02
0.0000000000000000e+00 1.0000000000000000e+02
0.0000000000000000e+00 1.0000000000000000e+03
ITEM: ENTRIES c_btype c_bondlen
1 1.34544 
1 0.911238 
ITEM: TIMESTEP
4500
ITEM: NUMBER OF ENTRIES
2
ITEM: BOX BOUNDS pp pp pp
0.0000000000000000e+00 1.0000000000000000e+02
0.0000000000000000e+00 1.0000000000000000e+02
0.0000000000000000e+00 1.0000000000000000e+03
ITEM: ENTRIES c_btype c_bondlen
1 1.15064 
1 0.941248 
ITEM: TIMESTEP
4600
ITEM: NUMBER OF ENTRIES
2
ITEM: BOX BOUNDS pp pp pp
0.0000000000000000e+00 1.0000000000000000e+02
0.0000000000000000e+00 1.0000000000000000e+02
0.0000000000000000e+00 1.0000000000000000e+03
ITEM: ENTRIES c_btype c_bondlen
1 1.00456 
1 0.771049 
ITEM: TIMESTEP
4700
ITEM: NUMBER OF ENTRIES
2
ITEM: BOX BOUNDS pp pp pp
0.0000000000000000e+00 1.0000000000000000e+02
0.0000000000000000e+00 1.0000000000000000e+02
0.0000000000000000e+00 1.0000000000000000e+03
ITEM: ENTRIES c_btype c_bondlen
1 1.17087 
1 0.991291 
ITEM: TIMESTEP
4800
ITEM: NUMBER OF ENTRIES
2
ITEM: BOX BOUNDS pp pp pp
0.0000000000000000e+00 1.0000000000000000e+02
0.0000000000000000e+00 1.0000000000000000e+02
0.0000000000000000e+00 1.0000000000000000e+03
ITEM: ENTRIES c_btype c_bondlen
1 1.23648 
1 0.913673 
ITEM: TIMESTEP
4900
ITEM: NUMBER OF ENTRIES
2
ITEM: BOX BOUNDS pp pp pp
0.0000000000000000e+00 1.0000000000000000e+02
0.0000000000000000e+00 1.0000000000000000e+02
0.0000000000000000e+00 1.0000000000000000e+03
ITEM: ENTRIES c_btype c_bondlen
1 1.03173 
1 0.915816 
ITEM: TIMESTEP
5000
ITEM: NUMBER OF ENTRIES
2
ITEM: BOX BOUNDS pp pp pp
0.0000000000000000e+00 1.0000000000000000e+02
0.0000000000000000e+00 1.0000000000000000e+02
0.0000000000000000e+00 1.0000000000000000e+03
ITEM: ENTRIES c_btype c_bondlen
1 1.13472 
1 0.977449 
ITEM: TIMESTEP
5100
ITEM: NUMBER OF ENTRIES
2
ITEM: BOX BOUNDS pp pp pp
0.0000000000000000e+00 1.0000000000000000e+02
0.0000000000000000e+00 1.0000000000000000e+02
0.0000000000000000e+00 1.0000000000000000e+03
ITEM: ENTRIES c_btype c_bondlen
1 1.15524 
1 0.94712 
ITEM: TIMESTEP
5200
ITEM: NUMBER OF ENTRIES
2
ITEM: BOX BOUNDS pp pp pp
0.0000000000000000e+00 1.0000000000000000e+02
0.0000000000000000e+00 1.0000000000000000e+02
0.0000000000000000e+00 1.0000000000000000e+03
ITEM: ENTRIES c_btype c_bondlen
1 1.243 
1 0.930744 
ITEM: TIMESTEP
5300
ITEM: NUMBER OF ENTRIES
2
ITEM: BOX BOUNDS pp pp pp
0.0000000000000000e+00 1.0000000000000000e+02
0.0000000000000000e+00 1.0000000000000000e+02
0.0000000000000000e+00 1.0000000000000000e+03
ITEM: ENTRIES c_btype c_bondlen
1 1.22853 
1 1.17234 
ITEM: TIMESTEP
5400
ITEM: NUMBER OF ENTRIES
2
ITEM: BOX BOUNDS pp pp pp
0.0000000000000000e+00 1.0000000000000000e+02
0.0000000000000000e+00 1.0000000000000000e+02
0.0000000000000000e+00 1.0000000000000000e+03
ITEM: ENTRIES c_btype c_bondlen
1 1.10025 
1 1.01911 
ITEM: TIMESTEP
5500
ITEM: NUMBER OF ENTRIES
2
ITEM: BOX BOUNDS pp pp pp
0.0000000000000000e+00 1.0000000000000000e+02
0.0000000000000000e+00 1.0000000000000000e+02
0.0000000000000000e+00 1.0000000000000000e+03
ITEM: ENTRIES c_btype c_bondlen
1 1.03917 
1 0.927526 
ITEM: TIMESTEP
5600
ITEM: NUMBER OF ENTRIES
2
ITEM: BOX BOUNDS pp pp pp
0.0000000000000000e+00 1.0000000000000000e+02
0.0000000000000000e+00 1.0000000000000000e+02
0.0000000000000000e+00 1.0000000000000000e+03
ITEM: ENTRIES c_btype c_bondlen
1 1.05119 
1 0.915583 
ITEM: TIMESTEP
5700
ITEM: NUMBER OF ENTRIES
2
ITEM: BOX BOUNDS pp pp pp
0.0000000000000000e+00 1.0000000000000000e+02
0.0000000000000000e+00 1.0000000000000000e+02
0.0000000000000000e+00 1.0000000000000000e+03
ITEM: ENTRIES c_btype c_bondlen
1 1.10104 
1 1.00084 
ITEM: TIMESTEP
5800
ITEM: NUMBER OF ENTRIES
2
ITEM: BOX BOUNDS pp pp pp
0.0000000000000000e+00 1.0000000000000000e+02
0.0000000000000000e+00 1.0000000000000000e+02
0.0000000000000000e+00 1.0000000000000000e+03
ITEM: ENTRIES c_btype c_bondlen
1 1.14962 
1 1.16589 
ITEM: TIMESTEP
5900
ITEM: NUMBER OF ENTRIES
2
ITEM: BOX BOUNDS pp pp pp
0.0000000000000000e+00 1.0000000000000000e+02
0.0000000000000000e+00 1.0000000000000000e+02
0.0000000000000000e+00 1.0000000000000000e+03
ITEM: ENTRIES c_btype c_bondlen
1 1.13211 
1 1.07249 
ITEM: TIMESTEP
6000
ITEM: NUMBER OF ENTRIES
2
ITEM: BOX BOUNDS pp pp pp
0.0000000000000000e+00 1.0000000000000000e+02
0.0000000000000000e+00 1.0000000000000000e+02
0.0000000000000000e+00 1.0000000000000000e+03
ITEM: ENTRIES c_btype c_bondlen
1 1.01293 
1 0.866963 
ITEM: TIMESTEP
6100
ITEM: NUMBER OF ENTRIES
2
ITEM: BOX BOUNDS pp pp pp
0.0000000000000000e+00 1.0000000000000000e+02
0.0000000000000000e+00 1.0000000000000000e+02
0.0000000000000000e+00 1.0000000000000000e+03
ITEM: ENTRIES c_btype c_bondlen
1 1.29787 
1 1.16332 
ITEM: TIMESTEP
6200
ITEM: NUMBER OF ENTRIES
2
ITEM: BOX BOUNDS pp pp pp
0.0000000000000000e+00 1.0000000000000000e+02
0.0000000000000000e+00 1.0000000000000000e+02
0.0000000000000000e+00 1.0000000000000000e+03
ITEM: ENTRIES c_btype c_bondlen
1 1.19596 
1 1.09289 
ITEM: TIMESTEP
6300
ITEM: NUMBER OF ENTRIES
2
ITEM: BOX BOUNDS pp pp pp
0.0000000000000000e+00 1.0000000000000000e+02
0.0000000000000000e+00 1.0000000000000000e+02
0.0000000000000000e+00 1.0000000000000000e+03
ITEM: ENTRIES c_btype c_bondlen
1 1.04813 
1 0.926693 
ITEM: TIMESTEP
6400
ITEM: NUMBER OF ENTRIES
2
ITEM: BOX BOUNDS pp pp pp
0.0000000000000000e+00 1.0000000000000000e+02
0.0000000000000000e+00 1.0000000000000000e+02
0.0000000000000000e+00 1.0000000000000000e+03
ITEM: ENTRIES c_btype c_bondlen
1 1.18935 
1 0.923535 
ITEM: TIMESTEP
6500
ITEM: NUMBER OF ENTRIES
2
ITEM: BOX BOUNDS pp pp pp
0.0000000000000000e+00 1.0000000000000000e+02
0.0000000000000000e+00 1.0000000000000000e+02
0.0000000000000000e+00 1.0000000000000000e+03
ITEM: ENTRIES c_btype c_bondlen
1 1.14684 
1 0.792332 
ITEM: TIMESTEP
6600
ITEM: NUMBER OF ENTRIES
2
ITEM: BOX BOUNDS pp pp pp
0.0000000000000000e+00 1.0000000000000000e+02
0.0000000000000000e+00 1.0000000000000000e+02
0.0000000000000000e+00 1.0000000000000000e+03
ITEM: ENTRIES c_btype c_bondlen
1 1.21791 
1 1.05182 
ITEM: TIMESTEP
6700
ITEM: NUMBER OF ENTRIES
2
ITEM: BOX BOUNDS pp pp pp
0.0000000000000000e+00 1.0000000000000000e+02
0.0000000000000000e+00 1.0000000000000000e+02
0.0000000000000000e+00 1.0000000000000000e+03
ITEM: ENTRIES c_btype c_bondlen
1 1.17001 
1 0.88354 
ITEM: TIMESTEP
6800
ITEM: NUMBER OF ENTRIES
2
ITEM: BOX BOUNDS pp pp pp
0.0000000000000000e+00 1.0000000000000000e+02
0.0000000000000000e+00 1.0000000000000000e+02
0.0000000000000000e+00 1.0000000000000000e+03
ITEM: ENTRIES c_btype c_bondlen
1 1.10294 
1 0.80527 
ITEM: TIMESTEP
6900
ITEM: NUMBER OF ENTRIES
2
ITEM: BOX BOUNDS pp pp pp
0.0000000000000000e+00 1.0000000000000000e+02
0.0000000000000000e+00 1.0000000000000000e+02
0.0000000000000000e+00 1.0000000000000000e+03
ITEM: ENTRIES c_btype c_bondlen
1 1.11529 
1 0.868149 
ITEM: TIMESTEP
7000
ITEM: NUMBER OF ENTRIES
2
ITEM: BOX BOUNDS pp pp pp
0.0000000000000000e+00 1.0000000000000000e+02
0.0000000000000000e+00 1.0000000000000000e+02
0.0000000000000000e+00 1.0000000000000000e+03
ITEM: ENTRIES c_btype c_bondlen
1 1.14884 
1 0.836465 
ITEM: TIMESTEP
7100
ITEM: NUMBER OF ENTRIES
2
ITEM: BOX BOUNDS pp pp pp
0.0000000000000000e+00 1.0000000000000000e+02
0.0000000000000000e+00 1.0000000000000000e+02
0.0000000000000000e+00 1.0000000000000000e+03
ITEM: ENTRIES c_btype c_bondlen
1 1.3566 
1 0.948638 
ITEM: TIMESTEP
7200
ITEM: NUMBER OF ENTRIES
2
ITEM: BOX BOUNDS pp pp pp
0.0000000000000000e+00 1.0000000000000000e+02
0.0000000000000000e+00 1.0000000000000000e+02
0.0000000000000000e+00 1.0000000000000000e+03
ITEM: ENTRIES c_btype c_bondlen
1 1.19881 
1 0.994027 
ITEM: TIMESTEP
7300
ITEM: NUMBER OF ENTRIES
2
ITEM: BOX BOUNDS pp pp pp
0.0000000000000000e+00 1.0000000000000000e+02
0.0000000000000000e+00 1.0000000000000000e+02
0.0000000000000000e+00 1.0000000000000000e+03
ITEM: ENTRIES c_btype c_bondlen
1 1.12061 
1 0.94472 
ITEM: TIMESTEP
7400
ITEM: NUMBER OF ENTRIES
2
ITEM: BOX BOUNDS pp pp pp
0.0000000000000000e+00 1.0000000000000000e+02
0.0000000000000000e+00 1.0000000000000000e+02
0.0000000000000000e+00 1.0000000000000000e+03
ITEM: ENTRIES c_btype c_bondlen
1 1.07958 
1 0.902575 
ITEM: TIMESTEP
7500
ITEM: NUMBER OF ENTRIES
2
ITEM: BOX BOUNDS pp pp pp
0.0000000000000000e+00 1.0000000000000000e+02
0.0000000000000000e+00 1.0000000000000000e+02
0.0000000000000000e+00 1.0000000000000000e+03
ITEM: ENTRIES c_btype c_bondlen
1 1.14829 
1 0.989215 
ITEM: TIMESTEP
7600
ITEM: NUMBER OF ENTRIES
2
ITEM: BOX BOUNDS pp pp pp
0.0000000000000000e+00 1.0000000000000000e+02
0.0000000000000000e+00 1.0000000000000000e+02
0.0000000000000000e+00 1.0000000000000000e+03
ITEM: ENTRIES c_btype c_bondlen
1 0.978958 
1 1.16454 
ITEM: TIMESTEP
7700
ITEM: NUMBER OF ENTRIES
2
ITEM: BOX BOUNDS pp pp pp
0.0000000000000000e+00 1.0000000000000000e+02
0.0000000000000000e+00 1.0000000000000000e+02
0.0000000000000000e+00 1.0000000000000000e+03
ITEM: ENTRIES c_btype c_bondlen
1 0.770421 
1 0.973448 
ITEM: TIMESTEP
7800
ITEM: NUMBER OF ENTRIES
2
ITEM: BOX BOUNDS pp pp pp
0.0000000000000000e+00 1.0000000000000000e+02
0.0000000000000000e+00 1.0000000000000000e+02
0.0000000000000000e+00 1.0000000000000000e+03
ITEM: ENTRIES c_btype c_bondlen
1 0.882626 
1 1.2261 
ITEM: TIMESTEP
7900
ITEM: NUMBER OF ENTRIES
2
ITEM: BOX BOUNDS pp pp pp
0.0000000000000000e+00 1.0000000000000000e+02
0.0000000000000000e+00 1.0000000000000000e+02
0.0000000000000000e+00 1.0000000000000000e+03
ITEM: ENTRIES c_btype c_bondlen
1 0.807497 
1 1.28464 
ITEM: TIMESTEP
8000
ITEM: NUMBER OF ENTRIES
2
ITEM: BOX BOUNDS pp pp pp
0.0000000000000000e+00 1.0000000000000000e+02
0.0000000000000000e+00 1.0000000000000000e+02
0.0000000000000000e+00 1.0000000000000000e+03
ITEM: ENTRIES c_btype c_bondlen
1 0.817424 
1 1.11348 
ITEM: TIMESTEP
8100
ITEM: NUMBER OF ENTRIES
2
ITEM: BOX BOUNDS pp pp pp
0.0000000000000000e+00 1.0000000000000000e+02
0.0000000000000000e+00 1.0000000000000000e+02
0.0000000000000000e+00 1.0000000000000000e+03
ITEM: ENTRIES c_btype c_bondlen
1 0.904447 
1 1.24628 
ITEM: TIMESTEP
8200
ITEM: NUMBER OF ENTRIES
2
ITEM: BOX BOUNDS pp pp pp
0.0000000000000000e+00 1.0000000000000000e+02
0.0000000000000000e+00 1.0000000000000000e+02
0.0000000000000000e+00 1.0000000000000000e+03
ITEM: ENTRIES c_btype c_bondlen
1 0.75695 
1 1.04859 
ITEM: TIMESTEP
8300
ITEM: NUMBER OF ENTRIES
2
ITEM: BOX BOUNDS pp pp pp
0.0000000000000000e+00 1.0000000000000000e+02
0.0000000000000000e+00 1.0000000000000000e+02
0.0000000000000000e+00 1.0000000000000000e+03
ITEM: ENTRIES c_btype c_bondlen
1 0.978812 
1 1.13388 
ITEM: TIMESTEP
8400
ITEM: NUMBER OF ENTRIES
2
ITEM: BOX BOUNDS pp pp pp
0.0000000000000000e+00 1.0000000000000000e+02
0.0000000000000000e+00 1.0000000000000000e+02
0.0000000000000000e+00 1.0000000000000000e+03
ITEM: ENTRIES c_btype c_bondlen
1 1.27926 
1 1.1811 
ITEM: TIMESTEP
8500
ITEM: NUMBER OF ENTRIES
2
ITEM: BOX BOUNDS pp pp pp
0.0000000000000000e+00 1.0000000000000000e+02
0.0000000000000000e+00 1.0000000000000000e+02
0.0000000000000000e+00 1.0000000000000000e+03
ITEM: ENTRIES c_btype c_bondlen
1 0.943708 
1 0.987799 
ITEM: TIMESTEP
8600
ITEM: NUMBER OF ENTRIES
2
ITEM: BOX BOUNDS pp pp pp
0.0000000000000000e+00 1.0000000000000000e+02
0.0000000000000000e+00 1.0000000000000000e+02
0.0000000000000000e+00 1.0000000000000000e+03
ITEM: ENTRIES c_btype c_bondlen
1 1.18429 
1 1.11117 
ITEM: TIMESTEP
8700
ITEM: NUMBER OF ENTRIES
2
ITEM: BOX BOUNDS pp pp pp
0.0000000000000000e+00 1.0000000000000000e+02
0.0000000000000000e+00 1.0000000000000000e+02
0.0000000000000000e+00 1.0000000000000000e+03
ITEM: ENTRIES c_btype c_bondlen
1 0.831352 
1 1.09808 
ITEM: TIMESTEP
8800
ITEM: NUMBER OF ENTRIES
2
ITEM: BOX BOUNDS pp pp pp
0.0000000000000000e+00 1.0000000000000000e+02
0.0000000000000000e+00 1.0000000000000000e+02
0.0000000000000000e+00 1.0000000000000000e+03
ITEM: ENTRIES c_btype c_bondlen
1 1.04786 
1 1.25707 
ITEM: TIMESTEP
8900
ITEM: NUMBER OF ENTRIES
2
ITEM: BOX BOUNDS pp pp pp
0.0000000000000000e+00 1.0000000000000000e+02
0.0000000000000000e+00 1.0000000000000000e+02
0.0000000000000000e+00 1.0000000000000000e+03
ITEM: ENTRIES c_btype c_bondlen
1 1.01823 
1 1.29984 
ITEM: TIMESTEP
9000
ITEM: NUMBER OF ENTRIES
2
ITEM: BOX BOUNDS pp pp pp
0.0000000000000000e+00 1.0000000000000000e+02
0.0000000000000000e+00 1.0000000000000000e+02
0.0000000000000000e+00 1.0000000000000000e+03
ITEM: ENTRIES c_btype c_bondlen
1 1.03539 
1 1.16725 
ITEM: TIMESTEP
9100
ITEM: NUMBER OF ENTRIES
2
ITEM: BOX BOUNDS pp pp pp
0.0000000000000000e+00 1.0000000000000000e+02
0.0000000000000000e+00 1.0000000000000000e+02
0.0000000000000000e+00 1.0000000000000000e+03
ITEM: ENTRIES c_btype c_bondlen
1 1.03359 
1 1.21111 
ITEM: TIMESTEP
9200
ITEM: NUMBER OF ENTRIES
2
ITEM: BOX BOUNDS pp pp pp
0.0000000000000000e+00 1.0000000000000000e+02
0.0000000000000000e+00 1.0000000000000000e+02
0.0000000000000000e+00 1.0000000000000000e+03
ITEM: ENTRIES c_btype c_bondlen
1 1.04097 
1 1.26836 
ITEM: TIMESTEP
9300
ITEM: NUMBER OF ENTRIES
2
ITEM: BOX BOUNDS pp pp pp
0.0000000000000000e+00 1.0000000000000000e+02
0.0000000000000000e+00 1.0000000000000000e+02
0.0000000000000000e+00 1.0000000000000000e+03
ITEM: ENTRIES c_btype c_bondlen
1 0.893247 
1 1.10264 
ITEM: TIMESTEP
9400
ITEM: NUMBER OF ENTRIES
2
ITEM: BOX BOUNDS pp pp pp
0.0000000000000000e+00 1.0000000000000000e+02
0.0000000000000000e+00 1.0000000000000000e+02
0.0000000000000000e+00 1.0000000000000000e+03
ITEM: ENTRIES c_btype c_bondlen
1 0.944082 
1 1.06326 
ITEM: TIMESTEP
9500
ITEM: NUMBER OF ENTRIES
2
ITEM: BOX BOUNDS pp pp pp
0.0000000000000000e+00 1.0000000000000000e+02
0.0000000000000000e+00 1.0000000000000000e+02
0.0000000000000000e+00 1.0000000000000000e+03
ITEM: ENTRIES c_btype c_bondlen
1 1.09846 
1 1.08068 
ITEM: TIMESTEP
9600
ITEM: NUMBER OF ENTRIES
2
ITEM: BOX BOUNDS pp pp pp
0.0000000000000000e+00 1.0000000000000000e+02
0.0000000000000000e+00 1.0000000000000000e+02
0.0000000000000000e+00 1.0000000000000000e+03
ITEM: ENTRIES c_btype c_bondlen
1 0.958342 
1 1.13933 
ITEM: TIMESTEP
9700
ITEM: NUMBER OF ENTRIES
2
ITEM: BOX BOUNDS pp pp pp
0.0000000000000000e+00 1.0000000000000000e+02
0.0000000000000000e+00 1.0000000000000000e+02
0.0000000000000000e+00 1.0000000000000000e+03
ITEM: ENTRIES c_btype c_bondlen
1 0.921772 
1 1.09038 
ITEM: TIMESTEP
9800
ITEM: NUMBER OF ENTRIES
2
ITEM: BOX BOUNDS pp pp pp
0.0000000000000000e+00 1.0000000000000000e+02
0.0000000000000000e+00 1.0000000000000000e+02
0.0000000000000000e+00 1.0000000000000000e+03
ITEM: ENTRIES c_btype c_bondlen
1 1.1821 
1 1.11619 
ITEM: TIMESTEP
9900
ITEM: NUMBER OF ENTRIES
2
ITEM: BOX BOUNDS pp pp pp
0.0000000000000000e+00 1.0000000000000000e+02
0.0000000000000000e+00 1.0000000000000000e+02
0.0000000000000000e+00 1.0000000000000000e+03
ITEM: ENTRIES c_btype c_bondlen
1 0.819155 
1 1.00027 
ITEM: TIMESTEP
10000
ITEM: NUMBER OF ENTRIES
2
ITEM: BOX BOUNDS pp pp pp
0.0000000000000000e+00 1.0000000000000000e+02
0.0000000000000000e+00 1.0000000000000000e+02
0.0000000000000000e+00 1.0000000000000000e+03
ITEM: ENTRIES c_btype c_bondlen
1 0.950403 
1 0.865508 
ITEM: TIMESTEP
10100
ITEM: NUMBER OF ENTRIES
2
ITEM: BOX BOUNDS pp pp pp
0.0000000000000000e+00 1.0000000000000000e+02
0.0000000000000000e+00 1.0000000000000000e+02
0.0000000000000000e+00 1.0000000000000000e+03
ITEM: ENTRIES c_btype c_bondlen
1 1.25325 
1 1.18749 
ITEM: TIMESTEP
10200
ITEM: NUMBER OF ENTRIES
2
ITEM: BOX BOUNDS pp pp pp
0.0000000000000000e+00 1.0000000000000000e+02
0.0000000000000000e+00 1.0000000000000000e+02
0.0000000000000000e+00 1.0000000000000000e+03
ITEM: ENTRIES c_btype c_bondlen
1 0.848703 
1 0.996105 
ITEM: TIMESTEP
10300
ITEM: NUMBER OF ENTRIES
2
ITEM: BOX BOUNDS pp pp pp
0.0000000000000000e+00 1.0000000000000000e+02
0.0000000000000000e+00 1.0000000000000000e+02
0.0000000000000000e+00 1.0000000000000000e+03
ITEM: ENTRIES c_btype c_bondlen
1 0.916959 
1 0.92536 
ITEM: TIMESTEP
10400
ITEM: NUMBER OF ENTRIES
2
ITEM: BOX BOUNDS pp pp pp
0.0000000000000000e+00 1.0000000000000000e+02
0.0000000000000000e+00 1.0000000000000000e+02
0.0000000000000000e+00 1.0000000000000000e+03
ITEM: ENTRIES c_btype c_bondlen
1 1.24708 
1 1.10629 
ITEM: TIMESTEP
10500
ITEM: NUMBER OF ENTRIES
2
ITEM: BOX BOUNDS pp pp pp
0.0000000000000000e+00 1.0000000000000000e+02
0.0000000000000000e+00 1.0000000000000000e+02
0.0000000000000000e+00 1.0000000000000000e+03
ITEM: ENTRIES c_btype c_bondlen
1 1.0883 
1 0.998439 
ITEM: TIMESTEP
10600
ITEM: NUMBER OF ENTRIES
2
ITEM: BOX BOUNDS pp pp pp
0.0000000000000000e+00 1.0000000000000000e+02
0.0000000000000000e+00 1.0000000000000000e+02
0.0000000000000000e+00 1.0000000000000000e+03
ITEM: ENTRIES c_btype c_bondlen
1 1.05519 
1 0.991613 
ITEM: TIMESTEP
10700
ITEM: NUMBER OF ENTRIES
2
ITEM: BOX BOUNDS pp pp pp
0.0000000000000000e+00 1.0000000000000000e+02
0.0000000000000000e+00 1.0000000000000000e+02
0.0000000000000000e+00 1.0000000000000000e+03
ITEM: ENTRIES c_btype c_bondlen
1 1.11859 
1 1.24239 
ITEM: TIMESTEP
10800
ITEM: NUMBER OF ENTRIES
2
ITEM: BOX BOUNDS pp pp pp
0.0000000000000000e+00 1.0000000000000000e+02
0.0000000000000000e+00 1.0000000000000000e+02
0.0000000000000000e+00 1.0000000000000000e+03
ITEM: ENTRIES c_btype c_bondlen
1 0.952679 
1 1.06365 
ITEM: TIMESTEP
10900
ITEM: NUMBER OF ENTRIES
2
ITEM: BOX BOUNDS pp pp pp
0.0000000000000000e+00 1.0000000000000000e+02
0.0000000000000000e+00 1.0000000000000000e+02
0.0000000000000000e+00 1.0000000000000000e+03
ITEM: ENTRIES c_btype c_bondlen
1 0.68407 
1 0.876625 
ITEM: TIMESTEP
11000
ITEM: NUMBER OF ENTRIES
2
ITEM: BOX BOUNDS pp pp pp
0.0000000000000000e+00 1.0000000000000000e+02
0.0000000000000000e+00 1.0000000000000000e+02
0.0000000000000000e+00 1.0000000000000000e+03
ITEM: ENTRIES c_btype c_bondlen
1 1.12629 
1 1.18895 
ITEM: TIMESTEP
11100
ITEM: NUMBER OF ENTRIES
2
ITEM: BOX BOUNDS pp pp pp
0.0000000000000000e+00 1.0000000000000000e+02
0.0000000000000000e+00 1.0000000000000000e+02
0.0000000000000000e+00 1.0000000000000000e+03
ITEM: ENTRIES c_btype c_bondlen
1 1.1834 
1 1.26717 
ITEM: TIMESTEP
11200
ITEM: NUMBER OF ENTRIES
2
ITEM: BOX BOUNDS pp pp pp
0.0000000000000000e+00 1.0000000000000000e+02
0.0000000000000000e+00 1.0000000000000000e+02
0.0000000000000000e+00 1.0000000000000000e+03
ITEM: ENTRIES c_btype c_bondlen
1 0.886012 
1 1.10337 
ITEM: TIMESTEP
11300
ITEM: NUMBER OF ENTRIES
2
ITEM: BOX BOUNDS pp pp pp