ITEM: TIMESTEP
0
ITEM: NUMBER OF ATOMS
3
ITEM: BOX BOUNDS pp pp pp
0.0000000000000000e+00 1.0000000000000000e+02
0.0000000000000000e+00 1.0000000000000000e+02
0.0000000000000000e+00 1.0000000000000000e+03
ITEM: ATOMS id type x y z ix iy iz
1 1 0 0 0 0 0 0
2 2 0 0 1 0 0 0
3 1 0 0 2 0 0 0
ITEM: TIMESTEP
5
ITEM: NUMBER OF ATOMS
3
ITEM: BOX BOUNDS pp pp pp
0.0000000000000000e+00 1.0000000000000000e+02
0.0000000000000000e+00 1.0000000000000000e+02
0.0000000000000000e+00 1.0000000000000000e+03
ITEM: ATOMS id type x y z ix iy iz
1 1 0 0 0 0 0 0
2 2 -0.000968599 -0.00107568 1.0122 0 0 0
3 1 0.00318328 -0.00393712 1.99438 0 0 0
ITEM: TIMESTEP
10
ITEM: NUMBER OF ATOMS
3
ITEM: BOX BOUNDS pp pp pp
0.0000000000000000e+00 1.0000000000000000e+02
0.0000000000000000e+00 1.0000000000000000e+02
0.0000000000000000e+00 1.0000000000000000e+03
ITEM: ATOMS id type x y z ix iy iz
1 1 0 0 0 0 0 0
2 2 -0.00668114 -0.00746443 1.00319 0 0 0
3 1 0.00207011 -0.00663114 2.01091 0 0 0
ITEM: TIMESTEP
15
ITEM: NUMBER OF ATOMS
3
ITEM: BOX BOUNDS pp pp pp
0.0000000000000000e+00 1.0000000000000000e+02
0.0000000000000000e+00 1.0000000000000000e+02
0.0000000000000000e+00 1.0000000000000000e+03
ITEM: ATOMS id type x y z ix iy iz
1 1 0 0 0 0 0 0
2 2 -0.00273401 0.00470051 0.967947 0 0 0
3 1 -0.015876 -0.00952102 2.01947 0 0 0
ITEM: TIMESTEP
20
ITEM: NUMBER OF ATOMS
3
ITEM: BOX BOUNDS pp pp pp
0.0000000000000000e+00 1.0000000000000000e+02
0.0000000000000000e+00 1.0000000000000000e+02
0.0000000000000000e+00 1.0000000000000000e+03
ITEM: ATOMS id type x y z ix iy iz
1 1 0 0 0 0 0 0
2 2 -0.00286624 -0.0124922 0.954022 0 0 0
3 1 -0.055752 -0.0341845 2.00804 0 0 0
ITEM: TIMESTEP
25
ITEM: NUMBER OF ATOMS
3
ITEM: BOX BOUNDS pp pp pp
0.0000000000000000e+00 1.0000000000000000e+02
0.0000000000000000e+00 1.0000000000000000e+02
0.0000000000000000e+00 1.0000000000000000e+03
ITEM: ATOMS id type x y z ix iy iz
1 1 0 0 0 0 0 0
2 2 -0.0311396 -0.0270263 0.963408 0 0 0
3 1 -0.113919 -0.0400153 1.98363 0 0 0
ITEM: TIMESTEP
30
ITEM: NUMBER OF ATOMS
3
ITEM: BOX BOUNDS pp pp pp
0.0000000000000000e+00 1.0000000000000000e+02
0.0000000000000000e+00 1.0000000000000000e+02
0.0000000000000000e+00 1.0000000000000000e+03
ITEM: ATOMS id type x y z ix iy iz
1 1 0 0 0 0 0 0
2 2 -0.0800662 -0.0502547 0.999255 0 0 0
3 1 -0.155255 -0.0191984 1.95875 0 0 0
ITEM: TIMESTEP
35
ITEM: NUMBER OF ATOMS
3
ITEM: BOX BOUNDS pp pp pp
0.0000000000000000e+00 1.0000000000000000e+02
0.0000000000000000e+00 1.0000000000000000e+02
0.0000000000000000e+00 1.0000000000000000e+03
ITEM: ATOMS id type x y z ix iy iz
1 1 0 0 0 0 0 0
2 2 -0.136637 -0.0443896 1.00499 0 0 0
3 1 -0.177385 0.0119708 1.94393 0 0 0
ITEM: TIMESTEP
40
ITEM: NUMBER OF ATOMS
3
ITEM: BOX BOUNDS pp pp pp
0.0000000000000000e+00 1.0000000000000000e+02
0.0000000000000000e+00 1.0000000000000000e+02
0.0000000000000000e+00 1.0000000000000000e+03
ITEM: ATOMS id type x y z ix iy iz
1 1 0 0 0 0 0 0
2 2 -0.188021 -0.0298303 0.9582 0 0 0
3 1 -0.221395 0.0289527 1.93865 0 0 0
ITEM: TIMESTEP
45
ITEM: NUMBER OF ATOMS
3
ITEM: BOX BOUNDS pp pp pp
0.0000000000000000e+00 1.0000000000000000e+02
0.0000000000000000e+00 1.0000000000000000e+02
0.0000000000000000e+00 1.0000000000000000e+03
ITEM: ATOMS id type x y z ix iy iz
1 1 0 0 0 0 0 0
2 2 -0.213626 -0.0107219 0.941786 0 0 0
3 1 -0.292375 0.022182 1.93458 0 0 0
ITEM: TIMESTEP
50
ITEM: NUMBER OF ATOMS
3
ITEM: BOX BOUNDS pp pp pp
0.0000000000000000e+00 1.0000000000000000e+02
0.0000000000000000e+00 1.0000000000000000e+02
0.0000000000000000e+00 1.0000000000000000e+03
ITEM: ATOMS id type x y z ix iy iz
1 1 0 0 0 0 0 0
2 2 -0.216424 0.00317192 0.950169 0 0 0
3 1 -0.382821 0.00442395 1.91454 0 0 0
ITEM: TIMESTEP
55
ITEM: NUMBER OF ATOMS
3
ITEM: BOX BOUNDS pp pp pp
0.0000000000000000e+00 1.0000000000000000e+02
0.0000000000000000e+00 1.0000000000000000e+02
0.0000000000000000e+00 1.0000000000000000e+03
ITEM: ATOMS id type x y z ix iy iz
1 1 0 0 0 0 0 0
2 2 -0.195998 0.0235971 0.941637 0 0 0
3 1 -0.462197 -0.010263 1.90765 0 0 0
ITEM: TIMESTEP
60
ITEM: NUMBER OF ATOMS
3
ITEM: BOX BOUNDS pp pp pp
0.0000000000000000e+00 1.0000000000000000e+02
0.0000000000000000e+00 1.0000000000000000e+02
0.0000000000000000e+00 1.0000000000000000e+03
ITEM: ATOMS id type x y z ix iy iz
1 1 0 0 0 0 0 0
2 2 -0.17414 0.0406049 0.94587 0 0 0
3 1 -0.516412 0.00192986 1.89615 0 0 0
ITEM: TIMESTEP
65
ITEM: NUMBER OF ATOMS
3
ITEM: BOX BOUNDS pp pp pp
0.0000000000000000e+00 1.0000000000000000e+02
0.0000000000000000e+00 1.0000000000000000e+02
0.0000000000000000e+00 1.0000000000000000e+03
ITEM: ATOMS id type x y z ix iy iz
1 1 0 0 0 0 0 0
2 2 -0.204112 0.0358427 0.966321 0 0 0
3 1 -0.532115 0.0262294 1.89381 0 0 0
ITEM: TIMESTEP
70
ITEM: NUMBER OF ATOMS
3
ITEM: BOX BOUNDS pp pp pp
0.0000000000000000e+00 1.0000000000000000e+02
0.0000000000000000e+00 1.0000000000000000e+02
0.0000000000000000e+00 1.0000000000000000e+03
ITEM: ATOMS id type x y z ix iy iz
1 1 0 0 0 0 0 0
2 2 -0.272712 0.0246018 0.989766 0 0 0
3 1 -0.535108 0.0489715 1.91598 0 0 0
ITEM: TIMESTEP
75
ITEM: NUMBER OF ATOMS
3
ITEM: BOX BOUNDS pp pp pp
0.0000000000000000e+00 1.0000000000000000e+02
0.0000000000000000e+00 1.0000000000000000e+02
0.0000000000000000e+00 1.0000000000000000e+03
ITEM: ATOMS id type x y z ix iy iz
1 1 0 0 0 0 0 0
2 2 -0.345648 -0.00262449 0.97865 0 0 0
3 1 -0.564031 0.0589918 1.94083 0 0 0
ITEM: TIMESTEP
80
ITEM: NUMBER OF ATOMS
3
ITEM: BOX BOUNDS pp pp pp
0.0000000000000000e+00 1.0000000000000000e+02
0.0000000000000000e+00 1.0000000000000000e+02
0.0000000000000000e+00 1.0000000000000000e+03
ITEM: ATOMS id type x y z ix iy iz
1 1 0 0 0 0 0 0
2 2 -0.376599 -0.030283 0.956472 0 0 0
3 1 -0.607007 0.0698052 1.95241 0 0 0
ITEM: TIMESTEP
85
ITEM: NUMBER OF ATOMS
3
ITEM: BOX BOUNDS pp pp pp
0.0000000000000000e+00 1.0000000000000000e+02
0.0000000000000000e+00 1.0000000000000000e+02
0.0000000000000000e+00 1.0000000000000000e+03
ITEM: ATOMS id type x y z ix iy iz
1 1 0 0 0 0 0 0
2 2 -0.373678 -0.0196239 0.9708 0 0 0
3 1 -0.659777 0.0584172 1.93573 0 0 0
ITEM: TIMESTEP
90
ITEM: NUMBER OF ATOMS
3
ITEM: BOX BOUNDS pp pp pp
0.0000000000000000e+00 1.0000000000000000e+02
0.0000000000000000e+00 1.0000000000000000e+02
0.0000000000000000e+00 1.0000000000000000e+03
ITEM: ATOMS id type x y z ix iy iz
1 1 0 0 0 0 0 0
2 2 -0.340494 0.0233214 0.996386 0 0 0
3 1 -0.701334 0.0195186 1.89564 0 0 0
ITEM: TIMESTEP
95
ITEM: NUMBER OF ATOMS
3
ITEM: BOX BOUNDS pp pp pp
0.0000000000000000e+00 1.0000000000000000e+02
0.0000000000000000e+00 1.0000000000000000e+02
0.0000000000000000e+00 1.0000000000000000e+03
ITEM: ATOMS id type x y z ix iy iz
1 1 0 0 0 0 0 0
2 2 -0.300028 0.0579638 0.980564 0 0 0
3 1 -0.745516 -0.0455454 1.86597 0 0 0
ITEM: TIMESTEP
100
ITEM: NUMBER OF ATOMS
3
ITEM: BOX BOUNDS pp pp pp
0.0000000000000000e+00 1.0000000000000000e+02
0.0000000000000000e+00 1.0000000000000000e+02
0.0000000000000000e+00 1.0000000000000000e+03
ITEM: ATOMS id type x y z ix iy iz
1 1 0 0 0 0 0 0
2 2 -0.282066 0.0475317 0.953069 0 0 0
3 1 -0.8054 -0.123281 1.84412 0 0 0
ITEM: TIMESTEP
105
ITEM: NUMBER OF ATOMS
3
ITEM: BOX BOUNDS pp pp pp
0.0000000000000000e+00 1.0000000000000000e+02
0.0000000000000000e+00 1.0000000000000000e+02
0.0000000000000000e+00 1.0000000000000000e+03
ITEM: ATOMS id type x y z ix iy iz
1 1 0 0 0 0 0 0
2 2 -0.347564 0.0155379 0.900544 0 0 0
3 1 -0.85398 -0.183968 1.80513 0 0 0
ITEM: TIMESTEP
110
ITEM: NUMBER OF ATOMS
3
ITEM: BOX BOUNDS pp pp pp
0.0000000000000000e+00 1.0000000000000000e+02
0.0000000000000000e+00 1.0000000000000000e+02
0.0000000000000000e+00 1.0000000000000000e+03
ITEM: ATOMS id type x y z ix iy iz
1 1 0 0 0 0 0 0
2 2 -0.46532 -0.0591926 0.873598 0 0 0
3 1 -0.886089 -0.236127 1.7722 0 0 0
ITEM: TIMESTEP
115
ITEM: NUMBER OF ATOMS
3
ITEM: BOX BOUNDS pp pp pp
0.0000000000000000e+00 1.0000000000000000e+02
0.0000000000000000e+00 1.0000000000000000e+02
0.0000000000000000e+00 1.0000000000000000e+03
ITEM: ATOMS id type x y z ix iy iz
1 1 0 0 0 0 0 0
2 2 99.43 99.8295 0.851371 -1 -1 0
3 1 99.0919 99.7219 1.74322 -1 -1 0
ITEM: TIMESTEP
120
ITEM: NUMBER OF ATOMS
3
ITEM: BOX BOUNDS pp pp pp
0.0000000000000000e+00 1.0000000000000000e+02
0.0000000000000000e+00 1.0000000000000000e+02
0.0000000000000000e+00 1.0000000000000000e+03
ITEM: ATOMS id type x y z ix iy iz
1 1 0 0 0 0 0 0
2 2 99.3926 99.7369 0.821318 -1 -1 0
3 1 99.0392 99.6513 1.7341 -1 -1 0
ITEM: TIMESTEP
125
ITEM: NUMBER OF ATOMS
3
ITEM: BOX BOUNDS pp pp pp
0.0000000000000000e+00 1.0000000000000000e+02
0.0000000000000000e+00 1.0000000000000000e+02
0.0000000000000000e+00 1.0000000000000000e+03
ITEM: ATOMS id type x y z ix iy iz
1 1 0 0 0 0 0 0
2 2 99.4219 99.6874 0.828275 -1 -1 0
3 1 98.974 99.5599 1.72234 -1 -1 0
ITEM: TIMESTEP
130
ITEM: NUMBER OF ATOMS
3
ITEM: BOX BOUNDS pp pp pp
0.0000000000000000e+00 1.0000000000000000e+02
0.0000000000000000e+00 1.0000000000000000e+02
0.0000000000000000e+00 1.0000000000000000e+03
ITEM: ATOMS id type x y z ix iy iz
1 1 0 0 0 0 0 0
2 2 99.4508 99.6592 0.829109 -1 -1 0
3 1 98.8873 99.4665 1.68509 -1 -1 0
ITEM: TIMESTEP
135
ITEM: NUMBER OF ATOMS
3
ITEM: BOX BOUNDS pp pp pp
0.0000000000000000e+00 1.0000000000000000e+02
0.0000000000000000e+00 1.0000000000000000e+02
0.0000000000000000e+00 1.0000000000000000e+03
ITEM: ATOMS id type x y z ix iy iz
1 1 0 0 0 0 0 0
2 2 99.4805 99.6888 0.831199 -1 -1 0
3 1 98.8088 99.366 1.62123 -1 -1 0
ITEM: TIMESTEP
140
ITEM: NUMBER OF ATOMS
3
ITEM: BOX BOUNDS pp pp pp
0.0000000000000000e+00 1.0000000000000000e+02
0.0000000000000000e+00 1.0000000000000000e+02
0.0000000000000000e+00 1.0000000000000000e+03
ITEM: ATOMS id type x y z ix iy iz
1 1 0 0 0 0 0 0
2 2 99.4865 99.7269 0.842486 -1 -1 0
3 1 98.7513 99.2913 1.53345 -1 -1 0
ITEM: TIMESTEP
145
ITEM: NUMBER OF ATOMS
3
ITEM: BOX BOUNDS pp pp pp
0.0000000000000000e+00 1.0000000000000000e+02
0.0000000000000000e+00 1.0000000000000000e+02
0.0000000000000000e+00 1.0000000000000000e+03
ITEM: ATOMS id type x y z ix iy iz
1 1 0 0 0 0 0 0
2 2 99.4355 99.732 0.835929 -1 -1 0
3 1 98.7498 99.2368 1.4369 -1 -1 0
ITEM: TIMESTEP
150
ITEM: NUMBER OF ATOMS
3
ITEM: BOX BOUNDS pp pp pp
0.0000000000000000e+00 1.0000000000000000e+02
0.0000000000000000e+00 1.0000000000000000e+02
0.0000000000000000e+00 1.0000000000000000e+03
ITEM: ATOMS id type x y z ix iy iz
1 1 0 0 0 0 0 0
2 2 99.3803 99.7015 0.790075 -1 -1 0
3 1 98.7532 99.1773 1.37306 -1 -1 0
ITEM: TIMESTEP
155
ITEM: NUMBER OF ATOMS
3
ITEM: BOX BOUNDS pp pp pp
0.0000000000000000e+00 1.0000000000000000e+02
0.0000000000000000e+00 1.0000000000000000e+02
0.0000000000000000e+00 1.0000000000000000e+03
ITEM: ATOMS id type x y z ix iy iz
1 1 0 0 0 0 0 0
2 2 99.3197 99.6256 0.680851 -1 -1 0
3 1 98.7554 99.1288 1.32894 -1 -1 0
ITEM: TIMESTEP
160
ITEM: NUMBER OF ATOMS
3
ITEM: BOX BOUNDS pp pp pp
0.0000000000000000e+00 1.0000000000000000e+02
0.0000000000000000e+00 1.0000000000000000e+02
0.0000000000000000e+00 1.0000000000000000e+03
ITEM: ATOMS id type x y z ix iy iz
1 1 0 0 0 0 0 0
2 2 99.2651 99.5352 0.563795 -1 -1 0
3 1 98.7448 99.0951 1.29699 -1 -1 0
ITEM: TIMESTEP
165
ITEM: NUMBER OF ATOMS
3
ITEM: BOX BOUNDS pp pp pp
0.0000000000000000e+00 1.0000000000000000e+02
0.0000000000000000e+00 1.0000000000000000e+02
0.0000000000000000e+00 1.0000000000000000e+03
ITEM: ATOMS id type x y z ix iy iz
1 1 0 0 0 0 0 0
2 2 99.2629 99.4527 0.449514 -1 -1 0
3 1 98.7142 99.0835 1.26478 -1 -1 0
ITEM: TIMESTEP
170
ITEM: NUMBER OF ATOMS
3
ITEM: BOX BOUNDS pp pp pp
0.0000000000000000e+00 1.0000000000000000e+02
0.0000000000000000e+00 1.0000000000000000e+02
0.0000000000000000e+00 1.0000000000000000e+03
ITEM: ATOMS id type x y z ix iy iz
1 1 0 0 0 0 0 0
2 2 99.2753 99.4138 0.41669 -1 -1 0
3 1 98.6876 99.057 1.19417 -1 -1 0
ITEM: TIMESTEP
175
ITEM: NUMBER OF ATOMS
3
ITEM: BOX BOUNDS pp pp pp
0.0000000000000000e+00 1.0000000000000000e+02
0.0000000000000000e+00 1.0000000000000000e+02
0.0000000000000000e+00 1.0000000000000000e+03
ITEM: ATOMS id type x y z ix iy iz
1 1 0 0 0 0 0 0
2 2 99.3168 99.4142 0.456911 -1 -1 0
3 1 98.6513 99.0088 1.09675 -1 -1 0
ITEM: TIMESTEP
180
ITEM: NUMBER OF ATOMS
3
ITEM: BOX BOUNDS pp pp pp
0.0000000000000000e+00 1.0000000000000000e+02
0.0000000000000000e+00 1.0000000000000000e+02
0.0000000000000000e+00 1.0000000000000000e+03
ITEM: ATOMS id type x y z ix iy iz
1 1 0 0 0 0 0 0
2 2 99.3585 99.4217 0.540244 -1 -1 0
3 1 98.606 98.9409 0.989318 -1 -1 0
ITEM: TIMESTEP
185
ITEM: NUMBER OF ATOMS
3
ITEM: BOX BOUNDS pp pp pp
0.0000000000000000e+00 1.0000000000000000e+02
0.0000000000000000e+00 1.0000000000000000e+02
0.0000000000000000e+00 1.0000000000000000e+03
ITEM: ATOMS id type x y z ix iy iz
1 1 0 0 0 0 0 0
2 2 99.3874 99.4192 0.606194 -1 -1 0
3 1 98.5589 98.8623 0.897577 -1 -1 0
ITEM: TIMESTEP
190
ITEM: NUMBER OF ATOMS
3
ITEM: BOX BOUNDS pp pp pp
0.0000000000000000e+00 1.0000000000000000e+02
0.0000000000000000e+00 1.0000000000000000e+02
0.0000000000000000e+00 1.0000000000000000e+03
ITEM: ATOMS id type x y z ix iy iz
1 1 0 0 0 0 0 0
2 2 99.3545 99.4317 0.628406 -1 -1 0
3 1 98.5357 98.7993 0.839473 -1 -1 0
ITEM: TIMESTEP
195
ITEM: NUMBER OF ATOMS
3
ITEM: BOX BOUNDS pp pp pp
0.0000000000000000e+00 1.0000000000000000e+02
0.0000000000000000e+00 1.0000000000000000e+02
0.0000000000000000e+00 1.0000000000000000e+03
ITEM: ATOMS id type x y z ix iy iz
1 1 0 0 0 0 0 0
2 2 99.2706 99.4482 0.562961 -1 -1 0
3 1 98.5409 98.7598 0.811846 -1 -1 0
ITEM: TIMESTEP
200
ITEM: NUMBER OF ATOMS
3
ITEM: BOX BOUNDS pp pp pp
0.0000000000000000e+00 1.0000000000000000e+02
0.0000000000000000e+00 1.0000000000000000e+02
0.0000000000000000e+00 1.0000000000000000e+03
ITEM: ATOMS id type x y z ix iy iz
1 1 0 0 0 0 0 0
2 2 99.167 99.428 0.417869 -1 -1 0
3 1 98.5519 98.7349 0.819852 -1 -1 0
ITEM: TIMESTEP
205
ITEM: NUMBER OF ATOMS
3
ITEM: BOX BOUNDS pp pp pp
0.0000000000000000e+00 1.0000000000000000e+02
0.0000000000000000e+00 1.0000000000000000e+02
0.0000000000000000e+00 1.0000000000000000e+03
ITEM: ATOMS id type x y z ix iy iz
1 1 0 0 0 0 0 0
2 2 99.1437 99.3942 0.247454 -1 -1 0
3 1 98.585 98.7337 0.826858 -1 -1 0
ITEM: TIMESTEP
210
ITEM: NUMBER OF ATOMS
3
ITEM: BOX BOUNDS pp pp pp
0.0000000000000000e+00 1.0000000000000000e+02
0.0000000000000000e+00 1.0000000000000000e+02
0.0000000000000000e+00 1.0000000000000000e+03
ITEM: ATOMS id type x y z ix iy iz
1 1 0 0 0 0 0 0
2 2 99.1833 99.3511 0.145346 -1 -1 0
3 1 98.6033 98.7473 0.828876 -1 -1 0
ITEM: TIMESTEP
215
ITEM: NUMBER OF ATOMS
3
ITEM: BOX BOUNDS pp pp pp
0.0000000000000000e+00 1.0000000000000000e+02
0.0000000000000000e+00 1.0000000000000000e+02
0.0000000000000000e+00 1.0000000000000000e+03
ITEM: ATOMS id type x y z ix iy iz
1 1 0 0 0 0 0 0
2 2 99.246 99.3308 0.157384 -1 -1 0
3 1 98.6002 98.765 0.791205 -1 -1 0
ITEM: TIMESTEP
220
ITEM: NUMBER OF ATOMS
3
ITEM: BOX BOUNDS pp pp pp
0.0000000000000000e+00 1.0000000000000000e+02
0.0000000000000000e+00 1.0000000000000000e+02
0.0000000000000000e+00 1.0000000000000000e+03
ITEM: ATOMS id type x y z ix iy iz
1 1 0 0 0 0 0 0
2 2 99.3229 99.3292 0.282875 -1 -1 0
3 1 98.5802 98.769 0.696134 -1 -1 0
ITEM: TIMESTEP
225
ITEM: NUMBER OF ATOMS
3
ITEM: BOX BOUNDS pp pp pp
0.0000000000000000e+00 1.0000000000000000e+02
0.0000000000000000e+00 1.0000000000000000e+02
0.0000000000000000e+00 1.0000000000000000e+03
ITEM: ATOMS id type x y z ix iy iz
1 1 0 0 0 0 0 0
2 2 99.3732 99.324 0.39941 -1 -1 0
3 1 98.5853 98.7598 0.605653 -1 -1 0
ITEM: TIMESTEP
230
ITEM: NUMBER OF ATOMS
3
ITEM: BOX BOUNDS pp pp pp
0.0000000000000000e+00 1.0000000000000000e+02
0.0000000000000000e+00 1.0000000000000000e+02
0.0000000000000000e+00 1.0000000000000000e+03
ITEM: ATOMS id type x y z ix iy iz
1 1 0 0 0 0 0 0
2 2 99.3843 99.3229 0.456334 -1 -1 0
3 1 98.6198 98.7235 0.542474 -1 -1 0
ITEM: TIMESTEP
235
ITEM: NUMBER OF ATOMS
3
ITEM: BOX BOUNDS pp pp pp
0.0000000000000000e+00 1.0000000000000000e+02
0.0000000000000000e+00 1.0000000000000000e+02
0.0000000000000000e+00 1.0000000000000000e+03
ITEM: ATOMS id type x y z ix iy iz
1 1 0 0 0 0 0 0
2 2 99.3537 99.3292 0.450283 -1 -1 0
3 1 98.6495 98.6676 0.523792 -1 -1 0
ITEM: TIMESTEP
240
ITEM: NUMBER OF ATOMS
3
ITEM: BOX BOUNDS pp pp pp
0.0000000000000000e+00 1.0000000000000000e+02
0.0000000000000000e+00 1.0000000000000000e+02
0.0000000000000000e+00 1.0000000000000000e+03
ITEM: ATOMS id type x y z ix iy iz
1 1 0 0 0 0 0 0
2 2 99.3187 99.3354 0.387413 -1 -1 0
3 1 98.674 98.5876 0.528751 -1 -1 0
ITEM: TIMESTEP
245
ITEM: NUMBER OF ATOMS
3
ITEM: BOX BOUNDS pp pp pp
0.0000000000000000e+00 1.0000000000000000e+02
0.0000000000000000e+00 1.0000000000000000e+02
0.0000000000000000e+00 1.0000000000000000e+03
ITEM: ATOMS id type x y z ix iy iz
1 1 0 0 0 0 0 0
2 2 99.2962 99.3166 0.28103 -1 -1 0
3 1 98.6839 98.5229 0.529452 -1 -1 0
ITEM: TIMESTEP
250
ITEM: NUMBER OF ATOMS
3
ITEM: BOX BOUNDS pp pp pp
0.0000000000000000e+00 1.0000000000000000e+02
0.0000000000000000e+00 1.0000000000000000e+02
0.0000000000000000e+00 1.0000000000000000e+03
ITEM: ATOMS id type x y z ix iy iz
1 1 0 0 0 0 0 0
2 2 99.2997 99.2928 0.16619 -1 -1 0
3 1 98.69 98.4825 0.521131 -1 -1 0
ITEM: TIMESTEP
255
ITEM: NUMBER OF ATOMS
3
ITEM: BOX BOUNDS pp pp pp
0.0000000000000000e+00 1.0000000000000000e+02
0.0000000000000000e+00 1.0000000000000000e+02
0.0000000000000000e+00 1.0000000000000000e+03
ITEM: ATOMS id type x y z ix iy iz
1 1 0 0 0 0 0 0
2 2 99.3142 99.2395 0.0777914 -1 -1 0
3 1 98.7118 98.4723 0.485416 -1 -1 0
ITEM: TIMESTEP
260
ITEM: NUMBER OF ATOMS
3
ITEM: BOX BOUNDS pp pp pp
0.0000000000000000e+00 1.0000000000000000e+02
0.0000000000000000e+00 1.0000000000000000e+02
0.0000000000000000e+00 1.0000000000000000e+03
ITEM: ATOMS id type x y z ix iy iz
1 1 0 0 0 0 0 0
2 2 99.3367 99.1884 0.0617739 -1 -1 0
3 1 98.7398 98.4684 0.409965 -1 -1 0
ITEM: TIMESTEP
265
ITEM: NUMBER OF ATOMS
3
ITEM: BOX BOUNDS pp pp pp
0.0000000000000000e+00 1.0000000000000000e+02
0.0000000000000000e+00 1.0000000000000000e+02
0.0000000000000000e+00 1.0000000000000000e+03
ITEM: ATOMS id type x y z ix iy iz
1 1 0 0 0 0 0 0
2 2 99.3558 99.1662 0.121993 -1 -1 0
3 1 98.7549 98.4629 0.318533 -1 -1 0
ITEM: TIMESTEP
270
ITEM: NUMBER OF ATOMS
3
ITEM: BOX BOUNDS pp pp pp
0.0000000000000000e+00 1.0000000000000000e+02
0.0000000000000000e+00 1.0000000000000000e+02
0.0000000000000000e+00 1.0000000000000000e+03
ITEM: ATOMS id type x y z ix iy iz
1 1 0 0 0 0 0 0
2 2 99.3901 99.2 0.20793 -1 -1 0
3 1 98.7548 98.4421 0.221588 -1 -1 0
ITEM: TIMESTEP
275
ITEM: NUMBER OF ATOMS
3
ITEM: BOX BOUNDS pp pp pp
0.0000000000000000e+00 1.0000000000000000e+02
0.0000000000000000e+00 1.0000000000000000e+02
0.0000000000000000e+00 1.0000000000000000e+03
ITEM: ATOMS id type x y z ix iy iz
1 1 0 0 0 0 0 0
2 2 99.4201 99.2796 0.244463 -1 -1 0
3 1 98.7453 98.4081 0.159041 -1 -1 0
ITEM: TIMESTEP
280
ITEM: NUMBER OF ATOMS
3
ITEM: BOX BOUNDS pp pp pp
0.0000000000000000e+00 1.0000000000000000e+02
0.0000000000000000e+00 1.0000000000000000e+02
0.0000000000000000e+00 1.0000000000000000e+03
ITEM: ATOMS id type x y z ix iy iz
1 1 0 0 0 0 0 0
2 2 99.4002 99.3008 0.207701 -1 -1 0
3 1 98.7355 98.3989 0.146121 -1 -1 0
ITEM: TIMESTEP
285
ITEM: NUMBER OF ATOMS
3
ITEM: BOX BOUNDS pp pp pp
0.0000000000000000e+00 1.0000000000000000e+02
0.0000000000000000e+00 1.0000000000000000e+02
0.0000000000000000e+00 1.0000000000000000e+03
ITEM: ATOMS id type x y z ix iy iz
1 1 0 0 0 0 0 0
2 2 99.3067 99.2511 0.150993 -1 -1 0
3 1 98.7291 98.4568 0.167804 -1 -1 0
ITEM: TIMESTEP
290
ITEM: NUMBER OF ATOMS
3
ITEM: BOX BOUNDS pp pp pp
0.0000000000000000e+00 1.0000000000000000e+02
0.0000000000000000e+00 1.0000000000000000e+02
0.0000000000000000e+00 1.0000000000000000e+03
ITEM: ATOMS id type x y z ix iy iz
1 1 0 0 0 0 0 0
2 2 99.2568 99.2042 0.0764957 -1 -1 0
3 1 98.7242 98.5382 0.193319 -1 -1 0
ITEM: TIMESTEP
295
ITEM: NUMBER OF ATOMS
3
ITEM: BOX BOUNDS pp pp pp
0.0000000000000000e+00 1.0000000000000000e+02
0.0000000000000000e+00 1.0000000000000000e+02
0.0000000000000000e+00 1.0000000000000000e+03
ITEM: ATOMS id type x y z ix iy iz
1 1 0 0 0 0 0 0
2 2 99.2934 99.2324 0.0218335 -1 -1 0
3 1 98.6575 98.5885 0.216996 -1 -1 0
ITEM: TIMESTEP
300
ITEM: NUMBER OF ATOMS
3
ITEM: BOX BOUNDS pp pp pp
0.0000000000000000e+00 1.0000000000000000e+02
0.0000000000000000e+00 1.0000000000000000e+02
0.0000000000000000e+00 1.0000000000000000e+03
ITEM: ATOMS id type x y z ix iy iz
1 1 0 0 0 0 0 0
2 2 99.3675 99.3142 -0.00459279 -1 -1 0
3 1 98.5678 98.6203 0.233365 -1 -1 0
ITEM: TIMESTEP
305
ITEM: NUMBER OF ATOMS
3
ITEM: BOX BOUNDS pp pp pp
0.0000000000000000e+00 1.0000000000000000e+02
0.0000000000000000e+00 1.0000000000000000e+02
0.0000000000000000e+00 1.0000000000000000e+03
ITEM: ATOMS id type x y z ix iy iz
1 1 0 0 0 0 0 0
2 2 99.3599 99.359 0.0234525 -1 -1 0
3 1 98.5296 98.6646 0.208114 -1 -1 0
ITEM: TIMESTEP
310
ITEM: NUMBER OF ATOMS
3
ITEM: BOX BOUNDS pp pp pp
0.0000000000000000e+00 1.0000000000000000e+02
0.0000000000000000e+00 1.0000000000000000e+02
0.0000000000000000e+00 1.0000000000000000e+03
ITEM: ATOMS id type x y z ix iy iz
1 1 0 0 0 0 0 0
2 2 99.2714 99.3221 0.0657835 -1 -1 0
3 1 98.5265 98.713 0.174721 -1 -1 0
ITEM: TIMESTEP
315
ITEM: NUMBER OF ATOMS
3
ITEM: BOX BOUNDS pp pp pp
0.0000000000000000e+00 1.0000000000000000e+02
0.0000000000000000e+00 1.0000000000000000e+02
0.0000000000000000e+00 1.0000000000000000e+03
ITEM: ATOMS id type x y z ix iy iz
1 1 0 0 0 0 0 0
2 2 99.2088 99.2944 0.100241 -1 -1 0
3 1 98.536 98.7444 0.111972 -1 -1 0
ITEM: TIMESTEP
320
ITEM: NUMBER OF ATOMS
3
ITEM: BOX BOUNDS pp pp pp
0.0000000000000000e+00 1.0000000000000000e+02
0.0000000000000000e+00 1.0000000000000000e+02
0.0000000000000000e+00 1.0000000000000000e+03
ITEM: ATOMS id type x y z ix iy iz
1 1 0 0 0 0 0 0
2 2 99.2152 99.3116 0.0871925 -1 -1 0
3 1 98.5173 98.7524 0.0522087 -1 -1 0
ITEM: TIMESTEP
325
ITEM: NUMBER OF ATOMS
3
ITEM: BOX BOUNDS pp pp pp
0.0000000000000000e+00 1.0000000000000000e+02
0.0000000000000000e+00 1.0000000000000000e+02
0.0000000000000000e+00 1.0000000000000000e+03
ITEM: ATOMS id type x y z ix iy iz
1 1 0 0 0 0 0 0
2 2 99.2563 99.3612 0.0103741 -1 -1 0
3 1 98.4654 98.7501 -0.00670646 -1 -1 0
ITEM: TIMESTEP
330
ITEM: NUMBER OF ATOMS
3
ITEM: BOX BOUNDS pp pp pp
0.0000000000000000e+00 1.0000000000000000e+02
0.0000000000000000e+00 1.0000000000000000e+02
0.0000000000000000e+00 1.0000000000000000e+03
ITEM: ATOMS id type x y z ix iy iz
1 1 0 0 0 0 0 0
2 2 99.29 99.4115 -0.0856774 -1 -1 0
3 1 98.4122 98.7487 -0.0704526 -1 -1 0
ITEM: TIMESTEP
335
ITEM: NUMBER OF ATOMS
3
ITEM: BOX BOUNDS pp pp pp
0.0000000000000000e+00 1.0000000000000000e+02
0.0000000000000000e+00 1.0000000000000000e+02
0.0000000000000000e+00 1.0000000000000000e+03
ITEM: ATOMS id type x y z ix iy iz
1 1 0 0 0 0 0 0
2 2 99.2534 99.4119 -0.163287 -1 -1 0
3 1 98.3811 98.7696 -0.133755 -1 -1 0
ITEM: TIMESTEP
340
ITEM: NUMBER OF ATOMS
3
ITEM: BOX BOUNDS pp pp pp
0.0000000000000000e+00 1.0000000000000000e+02
0.0000000000000000e+00 1.0000000000000000e+02
0.0000000000000000e+00 1.0000000000000000e+03
ITEM: ATOMS id type x y z ix iy iz
1 1 0 0 0 0 0 0
2 2 99.1618 99.3593 -0.17155 -1 -1 0
3 1 98.3644 98.7873 -0.190341 -1 -1 0
ITEM: TIMESTEP
345
ITEM: NUMBER OF ATOMS
3
ITEM: BOX BOUNDS pp pp pp
0.0000000000000000e+00 1.0000000000000000e+02
0.0000000000000000e+00 1.0000000000000000e+02
0.0000000000000000e+00 1.0000000000000000e+03
ITEM: ATOMS id type x y z ix iy iz
1 1 0 0 0 0 0 0
2 2 99.1107 99.3194 -0.114247 -1 -1 0
3 1 98.3593 98.809 -0.263355 -1 -1 0
ITEM: TIMESTEP
350
ITEM: NUMBER OF ATOMS
3
ITEM: BOX BOUNDS pp pp pp
0.0000000000000000e+00 1.0000000000000000e+02
0.0000000000000000e+00 1.0000000000000000e+02
0.0000000000000000e+00 1.0000000000000000e+03
ITEM: ATOMS id type x y z ix iy iz
1 1 0 0 0 0 0 0
2 2 99.1696 99.3364 -0.0314936 -1 -1 0
3 1 98.3348 98.8254 -0.310623 -1 -1 0
ITEM: TIMESTEP
355
ITEM: NUMBER OF ATOMS
3
ITEM: BOX BOUNDS pp pp pp
0.0000000000000000e+00 1.0000000000000000e+02
0.0000000000000000e+00 1.0000000000000000e+02
0.0000000000000000e+00 1.0000000000000000e+03
ITEM: ATOMS id type x y z ix iy iz
1 1 0 0 0 0 0 0
2 2 99.2219 99.4085 999.992 -1 -1 -1
3 1 98.3185 98.8216 999.675 -1 -1 -1
ITEM: TIMESTEP
360
ITEM: NUMBER OF ATOMS
3
ITEM: BOX BOUNDS pp pp pp
0.0000000000000000e+00 1.0000000000000000e+02
0.0000000000000000e+00 1.0000000000000000e+02
0.0000000000000000e+00 1.0000000000000000e+03
ITEM: ATOMS id type x y z ix iy iz
1 1 0 0 0 0 0 0
2 2 99.1932 99.4709 999.925 -1 -1 -1
3 1 98.3249 98.8406 999.705 -1 -1 -1
ITEM: TIMESTEP
365
ITEM: NUMBER OF ATOMS
3
ITEM: BOX BOUNDS pp pp pp
0.0000000000000000e+00 1.0000000000000000e+02
0.0000000000000000e+00 1.0000000000000000e+02
0.0000000000000000e+00 1.0000000000000000e+03
ITEM: ATOMS id type x y z ix iy iz
1 1 0 0 0 0 0 0
2 2 99.1059 99.5086 999.816 -1 -1 -1
3 1 98.3583 98.8556 999.761 -1 -1 -1
ITEM: TIMESTEP
370
ITEM: NUMBER OF ATOMS
3
ITEM: BOX BOUNDS pp pp pp
0.0000000000000000e+00 1.0000000000000000e+02
0.0000000000000000e+00 1.0000000000000000e+02
0.0000000000000000e+00 1.0000000000000000e+03
ITEM: ATOMS id type x y z ix iy iz
1 1 0 0 0 0 0 0
2 2 99.0763 99.5266 999.757 -1 -1 -1
3 1 98.388 98.8542 999.838 -1 -1 -1
ITEM: TIMESTEP
375
ITEM: NUMBER OF ATOMS
3
ITEM: BOX BOUNDS pp pp pp
0.0000000000000000e+00 1.0000000000000000e+02
0.0000000000000000e+00 1.0000000000000000e+02
0.0000000000000000e+00 1.0000000000000000e+03
ITEM: ATOMS id type x y z ix iy iz
1 1 0 0 0 0 0 0
2 2 99.1228 99.5363 999.765 -1 -1 -1
3 1 98.3993 98.8397 999.886 -1 -1 -1
ITEM: TIMESTEP
380
ITEM: NUMBER OF ATOMS
3
ITEM: BOX BOUNDS pp pp pp
0.0000000000000000e+00 1.0000000000000000e+02
0.0000000000000000e+00 1.0000000000000000e+02
0.0000000000000000e+00 1.0000000000000000e+03
ITEM: ATOMS id type x y z ix iy iz
1 1 0 0 0 0 0 0
2 2 99.1942 99.4866 999.855 -1 -1 -1
3 1 98.3979 98.8379 999.903 -1 -1 -1
ITEM: TIMESTEP
385
ITEM: NUMBER OF ATOMS
3
ITEM: BOX BOUNDS pp pp pp
0.0000000000000000e+00 1.0000000000000000e+02
0.0000000000000000e+00 1.0000000000000000e+02
0.0000000000000000e+00 1.0000000000000000e+03
ITEM: ATOMS id type x y z ix iy iz
1 1 0 0 0 0 0 0
2 2 99.2224 99.4245 999.968 -1 -1 -1
3 1 98.4041 98.8517 999.894 -1 -1 -1
ITEM: TIMESTEP
390
ITEM: NUMBER OF ATOMS
3
ITEM: BOX BOUNDS pp pp pp
0.0000000000000000e+00 1.0000000000000000e+02
0.0000000000000000e+00 1.0000000000000000e+02
0.0000000000000000e+00 1.0000000000000000e+03
ITEM: ATOMS id type x y z ix iy iz
1 1 0 0 0 0 0 0
2 2 99.2061 99.3691 1000.07 -1 -1 -1
3 1 98.408 98.8652 999.904 -1 -1 -1
ITEM: TIMESTEP
395
ITEM: NUMBER OF ATOMS
3
ITEM: BOX BOUNDS pp pp pp
0.0000000000000000e+00 1.0000000000000000e+02
0.0000000000000000e+00 1.0000000000000000e+02
0.0000000000000000e+00 1.0000000000000000e+03
ITEM: ATOMS id type x y z ix iy iz
1 1 0 0 0 0 0 0
2 2 99.1771 99.3527 1000.09 -1 -1 -1
3 1 98.4059 98.8543 999.919 -1 -1 -1
ITEM: TIMESTEP
400
ITEM: NUMBER OF ATOMS
3
ITEM: BOX BOUNDS pp pp pp
0.0000000000000000e+00 1.0000000000000000e+02
0.0000000000000000e+00 1.0000000000000000e+02
0.0000000000000000e+00 1.0000000000000000e+03
ITEM: ATOMS id type x y z ix iy iz
1 1 0 0 0 0 0 0
2 2 99.1593 99.3833 1000.06 -1 -1 -1
3 1 98.385 98.8061 999.946 -1 -1 -1
ITEM: TIMESTEP
405
ITEM: NUMBER OF ATOMS
3
ITEM: BOX BOUNDS pp pp pp
0.0000000000000000e+00 1.0000000000000000e+02
0.0000000000000000e+00 1.0000000000000000e+02
0.0000000000000000e+00 1.0000000000000000e+03
ITEM: ATOMS id type x y z ix iy iz
1 1 0 0 0 0 0 0
2 2 99.165 99.4218 999.992 -1 -1 -1
3 1 98.3832 98.7304 999.987 -1 -1 -1
ITEM: TIMESTEP
410
ITEM: NUMBER OF ATOMS
3
ITEM: BOX BOUNDS pp pp pp
0.0000000000000000e+00 1.0000000000000000e+02
0.0000000000000000e+00 1.0000000000000000e+02
0.0000000000000000e+00 1.0000000000000000e+03
ITEM: ATOMS id type x y z ix iy iz
1 1 0 0 0 0 0 0
2 2 99.1636 99.4246 999.956 -1 -1 -1
3 1 98.3884 98.6817 1000.02 -1 -1 -1
ITEM: TIMESTEP
415
ITEM: NUMBER OF ATOMS
3
ITEM: BOX BOUNDS pp pp pp
0.0000000000000000e+00 1.0000000000000000e+02
0.0000000000000000e+00 1.0000000000000000e+02
0.0000000000000000e+00 1.0000000000000000e+03
ITEM: ATOMS id type x y z ix iy iz
1 1 0 0 0 0 0 0
2 2 99.1653 99.3932 999.945 -1 -1 -1
3 1 98.4143 98.6653 1000.03 -1 -1 -1
ITEM: TIMESTEP
420
ITEM: NUMBER OF ATOMS
3
ITEM: BOX BOUNDS pp pp pp
0.0000000000000000e+00 1.0000000000000000e+02
0.0000000000000000e+00 1.0000000000000000e+02
0.0000000000000000e+00 1.0000000000000000e+03
ITEM: ATOMS id type x y z ix iy iz
1 1 0 0 0 0 0 0
2 2 99.1901 99.3217 999.965 -1 -1 -1
3 1 98.4303 98.6874 1000.01 -1 -1 -1
ITEM: TIMESTEP
425
ITEM: NUMBER OF ATOMS
3
ITEM: BOX BOUNDS pp pp pp
0.0000000000000000e+00 1.0000000000000000e+02
0.0000000000000000e+00 1.0000000000000000e+02
0.0000000000000000e+00 1.0000000000000000e+03
ITEM: ATOMS id type x y z ix iy iz
1 1 0 0 0 0 0 0
2 2 99.2445 99.26 999.991 -1 -1 -1
3 1 98.4476 98.6889 999.995 -1 -1 -1
ITEM: TIMESTEP
430
ITEM: NUMBER OF ATOMS
3
ITEM: BOX BOUNDS pp pp pp
0.0000000000000000e+00 1.0000000000000000e+02
0.0000000000000000e+00 1.0000000000000000e+02
0.0000000000000000e+00 1.0000000000000000e+03
ITEM: ATOMS id type x y z ix iy iz
1 1 0 0 0 0 0 0
2 2 99.3177 99.2591 1000.02 -1 -1 -1
3 1 98.4414 98.6515 1000.01 -1 -1 -1
ITEM: TIMESTEP
435
ITEM: NUMBER OF ATOMS
3
ITEM: BOX BOUNDS pp pp pp
0.0000000000000000e+00 1.0000000000000000e+02
0.0000000000000000e+00 1.0000000000000000e+02
0.0000000000000000e+00 1.0000000000000000e+03
ITEM: ATOMS id type x y z ix iy iz
1 1 0 0 0 0 0 0
2 2 99.37 99.2487 1000.02 -1 -1 -1
3 1 98.4604 98.592 1000.03 -1 -1 -1
ITEM: TIMESTEP
440
ITEM: NUMBER OF ATOMS
3
ITEM: BOX BOUNDS pp pp pp
0.0000000000000000e+00 1.0000000000000000e+02
0.0000000000000000e+00 1.0000000000000000e+02
0.0000000000000000e+00 1.0000000000000000e+03
ITEM: ATOMS id type x y z ix iy iz
1 1 0 0 0 0 0 0
2 2 99.347 99.2247 1000.01 -1 -1 -1
3 1 98.5293 98.5516 1000.06 -1 -1 -1
ITEM: TIMESTEP
445
ITEM: NUMBER OF ATOMS
3
ITEM: BOX BOUNDS pp pp pp
0.0000000000000000e+00 1.0000000000000000e+02
0.0000000000000000e+00 1.0000000000000000e+02
0.0000000000000000e+00 1.0000000000000000e+03
ITEM: ATOMS id type x y z ix iy iz
1 1 0 0 0 0 0 0
2 2 99.2765 99.2256 999.993 -1 -1 -1
3 1 98.5966 98.518 1000.1 -1 -1 -1
ITEM: TIMESTEP
450
ITEM: NUMBER OF ATOMS
3
ITEM: BOX BOUNDS pp pp pp
0.0000000000000000e+00 1.0000000000000000e+02