ITEM: TIMESTEP
0
ITEM: NUMBER OF ENTRIES
2
ITEM: BOX BOUNDS pp pp pp
0.0000000000000000e+00 1.0000000000000000e+02
0.0000000000000000e+00 1.0000000000000000e+02
0.0000000000000000e+00 1.0000000000000000e+03
ITEM: ENTRIES c_btype c_bondlen
1 1 
1 1 
ITEM: TIMESTEP
100
ITEM: NUMBER OF ENTRIES
2
ITEM: BOX BOUNDS pp pp pp
0.0000000000000000e+00 1.0000000000000000e+02
0.0000000000000000e+00 1.0000000000000000e+02
0.0000000000000000e+00 1.0000000000000000e+03
ITEM: ENTRIES c_btype c_bondlen
1 0.959117 
1 0.877716 
ITEM: TIMESTEP
200
ITEM: NUMBER OF ENTRIES
2
ITEM: BOX BOUNDS pp pp pp
0.0000000000000000e+00 1.0000000000000000e+02
0.0000000000000000e+00 1.0000000000000000e+02
0.0000000000000000e+00 1.0000000000000000e+03
ITEM: ENTRIES c_btype c_bondlen
1 0.99227 
1 1.11436 
ITEM: TIMESTEP
300
ITEM: NUMBER OF ENTRIES
2
ITEM: BOX BOUNDS pp pp pp
0.0000000000000000e+00 1.0000000000000000e+02
0.0000000000000000e+00 1.0000000000000000e+02
0.0000000000000000e+00 1.0000000000000000e+03
ITEM: ENTRIES c_btype c_bondlen
1 1.57962 
1 1.05891 
ITEM: TIMESTEP
400
ITEM: NUMBER OF ENTRIES
2
ITEM: BOX BOUNDS pp pp pp
0.0000000000000000e+00 1.0000000000000000e+02
0.0000000000000000e+00 1.0000000000000000e+02
0.0000000000000000e+00 1.0000000000000000e+03
ITEM: ENTRIES c_btype c_bondlen
1 1.18456 
1 1.61686 
ITEM: TIMESTEP
500
ITEM: NUMBER OF ENTRIES
2
ITEM: BOX BOUNDS pp pp pp
0.0000000000000000e+00 1.0000000000000000e+02
0.0000000000000000e+00 1.0000000000000000e+02
0.0000000000000000e+00 1.0000000000000000e+03
ITEM: ENTRIES c_btype c_bondlen
1 1.3257 
1 1.2503 
ITEM: TIMESTEP
600
ITEM: NUMBER OF ENTRIES
2
ITEM: BOX BOUNDS pp pp pp
0.0000000000000000e+00 1.0000000000000000e+02
0.0000000000000000e+00 1.0000000000000000e+02
0.0000000000000000e+00 1.0000000000000000e+03
ITEM: ENTRIES c_btype c_bondlen
1 1.01229 
1 1.33669 
ITEM: TIMESTEP
700
ITEM: NUMBER OF ENTRIES
2
ITEM: BOX BOUNDS pp pp pp
0.0000000000000000e+00 1.0000000000000000e+02
0.0000000000000000e+00 1.0000000000000000e+02
0.0000000000000000e+00 1.0000000000000000e+03
ITEM: ENTRIES c_btype c_bondlen
1 1.21726 
1 0.99151 
ITEM: TIMESTEP
800
ITEM: NUMBER OF ENTRIES
2
ITEM: BOX BOUNDS pp pp pp
0.0000000000000000e+00 1.0000000000000000e+02
0.0000000000000000e+00 1.0000000000000000e+02
0.0000000000000000e+00 1.0000000000000000e+03
ITEM: ENTRIES c_btype c_bondlen
1 0.857525 
1 1.23586 
ITEM: TIMESTEP
900
ITEM: NUMBER OF ENTRIES
2
ITEM: BOX BOUNDS pp pp pp
0.0000000000000000e+00 1.0000000000000000e+02
0.0000000000000000e+00 1.0000000000000000e+02
0.0000000000000000e+00 1.0000000000000000e+03
ITEM: ENTRIES c_btype c_bondlen
1 1.48643 
1 1.18213 
ITEM: TIMESTEP
1000
ITEM: NUMBER OF ENTRIES
2
ITEM: BOX BOUNDS pp pp pp
0.0000000000000000e+00 1.0000000000000000e+02
0.0000000000000000e+00 1.0000000000000000e+02
0.0000000000000000e+00 1.0000000000000000e+03
ITEM: ENTRIES c_btype c_bondlen
1 1.46447 
1 1.36232 
ITEM: TIMESTEP
1100
ITEM: NUMBER OF ENTRIES
2
ITEM: BOX BOUNDS pp pp pp
0.0000000000000000e+00 1.0000000000000000e+02
0.0000000000000000e+00 1.0000000000000000e+02
0.0000000000000000e+00 1.0000000000000000e+03
ITEM: ENTRIES c_btype c_bondlen
1 1.26911 
1 1.56972 
ITEM: TIMESTEP
1200
ITEM: NUMBER OF ENTRIES
2
ITEM: BOX BOUNDS pp pp pp
0.0000000000000000e+00 1.0000000000000000e+02
0.0000000000000000e+00 1.0000000000000000e+02
0.0000000000000000e+00 1.0000000000000000e+03
ITEM: ENTRIES c_btype c_bondlen
1 1.4326 
1 0.944007 
ITEM: TIMESTEP
1300
ITEM: NUMBER OF ENTRIES
2
ITEM: BOX BOUNDS pp pp pp
0.0000000000000000e+00 1.0000000000000000e+02
0.0000000000000000e+00 1.0000000000000000e+02
0.0000000000000000e+00 1.0000000000000000e+03
ITEM: ENTRIES c_btype c_bondlen
1 1.02971 
1 1.22381 
ITEM: TIMESTEP
1400
ITEM: NUMBER OF ENTRIES
2
ITEM: BOX BOUNDS pp pp pp
0.0000000000000000e+00 1.0000000000000000e+02
0.0000000000000000e+00 1.0000000000000000e+02
0.0000000000000000e+00 1.0000000000000000e+03
ITEM: ENTRIES c_btype c_bondlen
1 0.915014 
1 1.17787 
ITEM: TIMESTEP
1500
ITEM: NUMBER OF ENTRIES
2
ITEM: BOX BOUNDS pp pp pp
0.0000000000000000e+00 1.0000000000000000e+02
0.0000000000000000e+00 1.0000000000000000e+02
0.0000000000000000e+00 1.0000000000000000e+03
ITEM: ENTRIES c_btype c_bondlen
1 1.00379 
1 0.910581 
ITEM: TIMESTEP
1600
ITEM: NUMBER OF ENTRIES
2
ITEM: BOX BOUNDS pp pp pp
0.0000000000000000e+00 1.0000000000000000e+02
0.0000000000000000e+00 1.0000000000000000e+02
0.0000000000000000e+00 1.0000000000000000e+03
ITEM: ENTRIES c_btype c_bondlen
1 1.32478 
1 1.58851 
ITEM: TIMESTEP
1700
ITEM: NUMBER OF ENTRIES
2
ITEM: BOX BOUNDS pp pp pp
0.0000000000000000e+00 1.0000000000000000e+02
0.0000000000000000e+00 1.0000000000000000e+02
0.0000000000000000e+00 1.0000000000000000e+03
ITEM: ENTRIES c_btype c_bondlen
1 1.68048 
1 1.44772 
ITEM: TIMESTEP
1800
ITEM: NUMBER OF ENTRIES
2
ITEM: BOX BOUNDS pp pp pp
0.0000000000000000e+00 1.0000000000000000e+02
0.0000000000000000e+00 1.0000000000000000e+02
0.0000000000000000e+00 1.0000000000000000e+03
ITEM: ENTRIES c_btype c_bondlen
1 1.10924 
1 1.27138 
ITEM: TIMESTEP
1900
ITEM: NUMBER OF ENTRIES
2
ITEM: BOX BOUNDS pp pp pp
0.0000000000000000e+00 1.0000000000000000e+02
0.0000000000000000e+00 1.0000000000000000e+02
0.0000000000000000e+00 1.0000000000000000e+03
ITEM: ENTRIES c_btype c_bondlen
1 1.03765 
1 0.719515 
ITEM: TIMESTEP
2000
ITEM: NUMBER OF ENTRIES
2
ITEM: BOX BOUNDS pp pp pp
0.0000000000000000e+00 1.0000000000000000e+02
0.0000000000000000e+00 1.0000000000000000e+02
0.0000000000000000e+00 1.0000000000000000e+03
ITEM: ENTRIES c_btype c_bondlen
1 0.560838 
1 1.241 
ITEM: TIMESTEP
2100
ITEM: NUMBER OF ENTRIES
2
ITEM: BOX BOUNDS pp pp pp
0.0000000000000000e+00 1.0000000000000000e+02
0.0000000000000000e+00 1.0000000000000000e+02
0.0000000000000000e+00 1.0000000000000000e+03
ITEM: ENTRIES c_btype c_bondlen
1 1.04863 
1 1.08374 
ITEM: TIMESTEP
2200
ITEM: NUMBER OF ENTRIES
2
ITEM: BOX BOUNDS pp pp pp
0.0000000000000000e+00 1.0000000000000000e+02
0.0000000000000000e+00 1.0000000000000000e+02
0.0000000000000000e+00 1.0000000000000000e+03
ITEM: ENTRIES c_btype c_bondlen
1 1.30164 
1 1.13174 
ITEM: TIMESTEP
2300
ITEM: NUMBER OF ENTRIES
2
ITEM: BOX BOUNDS pp pp pp
0.0000000000000000e+00 1.0000000000000000e+02
0.0000000000000000e+00 1.0000000000000000e+02
0.0000000000000000e+00 1.0000000000000000e+03
ITEM: ENTRIES c_btype c_bondlen
1 1.19095 
1 1.54416 
ITEM: TIMESTEP
2400
ITEM: NUMBER OF ENTRIES
2
ITEM: BOX BOUNDS pp pp pp
0.0000000000000000e+00 1.0000000000000000e+02
0.0000000000000000e+00 1.0000000000000000e+02
0.0000000000000000e+00 1.0000000000000000e+03
ITEM: ENTRIES c_btype c_bondlen
1 1.28727 
1 0.976041 
ITEM: TIMESTEP
2500
ITEM: NUMBER OF ENTRIES
2
ITEM: BOX BOUNDS pp pp pp
0.0000000000000000e+00 1.0000000000000000e+02
0.0000000000000000e+00 1.0000000000000000e+02
0.0000000000000000e+00 1.0000000000000000e+03
ITEM: ENTRIES c_btype c_bondlen
1 0.710701 
1 1.38238 
ITEM: TIMESTEP
2600
ITEM: NUMBER OF ENTRIES
2
ITEM: BOX BOUNDS pp pp pp
0.0000000000000000e+00 1.0000000000000000e+02
0.0000000000000000e+00 1.0000000000000000e+02
0.0000000000000000e+00 1.0000000000000000e+03
ITEM: ENTRIES c_btype c_bondlen
1 1.36344 
1 0.884459 
ITEM: TIMESTEP
2700
ITEM: NUMBER OF ENTRIES
2
ITEM: BOX BOUNDS pp pp pp
0.0000000000000000e+00 1.0000000000000000e+02
0.0000000000000000e+00 1.0000000000000000e+02
0.0000000000000000e+00 1.0000000000000000e+03
ITEM: ENTRIES c_btype c_bondlen
1 0.988216 
1 1.14665 
ITEM: TIMESTEP
2800
ITEM: NUMBER OF ENTRIES
2
ITEM: BOX BOUNDS pp pp pp
0.0000000000000000e+00 1.0000000000000000e+02
0.0000000000000000e+00 1.0000000000000000e+02
0.0000000000000000e+00 1.0000000000000000e+03
ITEM: ENTRIES c_btype c_bondlen
1 1.15581 
1 1.2979 
ITEM: TIMESTEP
2900
ITEM: NUMBER OF ENTRIES
2
ITEM: BOX BOUNDS pp pp pp
0.0000000000000000e+00 1.0000000000000000e+02
0.0000000000000000e+00 1.0000000000000000e+02
0.0000000000000000e+00 1.0000000000000000e+03
ITEM: ENTRIES c_btype c_bondlen
1 1.30463 
1 1.00446 
ITEM: TIMESTEP
3000
ITEM: NUMBER OF ENTRIES
2
ITEM: BOX BOUNDS pp pp pp
0.0000000000000000e+00 1.0000000000000000e+02
0.0000000000000000e+00 1.0000000000000000e+02
0.0000000000000000e+00 1.0000000000000000e+03
ITEM: ENTRIES c_btype c_bondlen
1 1.21336 
1 1.11065 
ITEM: TIMESTEP
3100
ITEM: NUMBER OF ENTRIES
2
ITEM: BOX BOUNDS pp pp pp
0.0000000000000000e+00 1.0000000000000000e+02
0.0000000000000000e+00 1.0000000000000000e+02
0.0000000000000000e+00 1.0000000000000000e+03
ITEM: ENTRIES c_btype c_bondlen
1 1.16725 
1 1.48271 
ITEM: TIMESTEP
3200
ITEM: NUMBER OF ENTRIES
2
ITEM: BOX BOUNDS pp pp pp
0.0000000000000000e+00 1.0000000000000000e+02
0.0000000000000000e+00 1.0000000000000000e+02
0.0000000000000000e+00 1.0000000000000000e+03
ITEM: ENTRIES c_btype c_bondlen
1 1.68005 
1 1.03857 
ITEM: TIMESTEP
3300
ITEM: NUMBER OF ENTRIES
2
ITEM: BOX BOUNDS pp pp pp
0.0000000000000000e+00 1.0000000000000000e+02
0.0000000000000000e+00 1.0000000000000000e+02
0.0000000000000000e+00 1.0000000000000000e+03
ITEM: ENTRIES c_btype c_bondlen
1 0.912252 
1 1.67425 
ITEM: TIMESTEP
3400
ITEM: NUMBER OF ENTRIES
2
ITEM: BOX BOUNDS pp pp pp
0.0000000000000000e+00 1.0000000000000000e+02
0.0000000000000000e+00 1.0000000000000000e+02
0.0000000000000000e+00 1.0000000000000000e+03
ITEM: ENTRIES c_btype c_bondlen
1 1.00802 
1 0.897144 
ITEM: TIMESTEP
3500
ITEM: NUMBER OF ENTRIES
2
ITEM: BOX BOUNDS pp pp pp
0.0000000000000000e+00 1.0000000000000000e+02
0.0000000000000000e+00 1.0000000000000000e+02
0.0000000000000000e+00 1.0000000000000000e+03
ITEM: ENTRIES c_btype c_bondlen
1 0.913366 
1 1.41572 
ITEM: TIMESTEP
3600
ITEM: NUMBER OF ENTRIES
2
ITEM: BOX BOUNDS pp pp pp
0.0000000000000000e+00 1.0000000000000000e+02
0.0000000000000000e+00 1.0000000000000000e+02
0.0000000000000000e+00 1.0000000000000000e+03
ITEM: ENTRIES c_btype c_bondlen
1 1.54465 
1 1.21907 
ITEM: TIMESTEP
3700
ITEM: NUMBER OF ENTRIES
2
ITEM: BOX BOUNDS pp pp pp
0.0000000000000000e+00 1.0000000000000000e+02
0.0000000000000000e+00 1.0000000000000000e+02
0.0000000000000000e+00 1.0000000000000000e+03
ITEM: ENTRIES c_btype c_bondlen
1 1.2557 
1 1.44149 
ITEM: TIMESTEP
3800
ITEM: NUMBER OF ENTRIES
2
ITEM: BOX BOUNDS pp pp pp
0.0000000000000000e+00 1.0000000000000000e+02
0.0000000000000000e+00 1.0000000000000000e+02
0.0000000000000000e+00 1.0000000000000000e+03
ITEM: ENTRIES c_btype c_bondlen
1 0.975758 
1 1.01317 
ITEM: TIMESTEP
3900
ITEM: NUMBER OF ENTRIES
2
ITEM: BOX BOUNDS pp pp pp
0.0000000000000000e+00 1.0000000000000000e+02
0.0000000000000000e+00 1.0000000000000000e+02
0.0000000000000000e+00 1.0000000000000000e+03
ITEM: ENTRIES c_btype c_bondlen
1 0.781902 
1 0.890808 
ITEM: TIMESTEP
4000
ITEM: NUMBER OF ENTRIES
2
ITEM: BOX BOUNDS pp pp pp
0.0000000000000000e+00 1.0000000000000000e+02
0.0000000000000000e+00 1.0000000000000000e+02
0.0000000000000000e+00 1.0000000000000000e+03
ITEM: ENTRIES c_btype c_bondlen
1 0.863755 
1 1.09562 
ITEM: TIMESTEP
4100
ITEM: NUMBER OF ENTRIES
2
ITEM: BOX BOUNDS pp pp pp
0.0000000000000000e+00 1.0000000000000000e+02
0.0000000000000000e+00 1.0000000000000000e+02
0.0000000000000000e+00 1.0000000000000000e+03
ITEM: ENTRIES c_btype c_bondlen
1 1.40399 
1 1.05949 
ITEM: TIMESTEP
4200
ITEM: NUMBER OF ENTRIES
2
ITEM: BOX BOUNDS pp pp pp
0.0000000000000000e+00 1.0000000000000000e+02
0.0000000000000000e+00 1.0000000000000000e+02
0.0000000000000000e+00 1.0000000000000000e+03
ITEM: ENTRIES c_btype c_bondlen
1 1.40339 
1 1.54755 
ITEM: TIMESTEP
4300
ITEM: NUMBER OF ENTRIES
2
ITEM: BOX BOUNDS pp pp pp
0.0000000000000000e+00 1.0000000000000000e+02
0.0000000000000000e+00 1.0000000000000000e+02
0.0000000000000000e+00 1.0000000000000000e+03
ITEM: ENTRIES c_btype c_bondlen
1 1.36189 
1 1.13423 
ITEM: TIMESTEP
4400
ITEM: NUMBER OF ENTRIES
2
ITEM: BOX BOUNDS pp pp pp
0.0000000000000000e+00 1.0000000000000000e+02
0.0000000000000000e+00 1.0000000000000000e+02
0.0000000000000000e+00 1.0000000000000000e+03
ITEM: ENTRIES c_btype c_bondlen
1 1.15461 
1 1.33354 
ITEM: TIMESTEP
4500
ITEM: NUMBER OF ENTRIES
2
ITEM: BOX BOUNDS pp pp pp
0.0000000000000000e+00 1.0000000000000000e+02
0.0000000000000000e+00 1.0000000000000000e+02
0.0000000000000000e+00 1.0000000000000000e+03
ITEM: ENTRIES c_btype c_bondlen
1 1.29425 
1 1.09674 
ITEM: TIMESTEP
4600
ITEM: NUMBER OF ENTRIES
2
ITEM: BOX BOUNDS pp pp pp
0.0000000000000000e+00 1.0000000000000000e+02
0.0000000000000000e+00 1.0000000000000000e+02
0.0000000000000000e+00 1.0000000000000000e+03
ITEM: ENTRIES c_btype c_bondlen
1 1.4164 
1 1.07167 
ITEM: TIMESTEP
4700
ITEM: NUMBER OF ENTRIES
2
ITEM: BOX BOUNDS pp pp pp
0.0000000000000000e+00 1.0000000000000000e+02
0.0000000000000000e+00 1.0000000000000000e+02
0.0000000000000000e+00 1.0000000000000000e+03
ITEM: ENTRIES c_btype c_bondlen
1 1.13329 
1 1.3518 
ITEM: TIMESTEP
4800
ITEM: NUMBER OF ENTRIES
2
ITEM: BOX BOUNDS pp pp pp
0.0000000000000000e+00 1.0000000000000000e+02
0.0000000000000000e+00 1.0000000000000000e+02
0.0000000000000000e+00 1.0000000000000000e+03
ITEM: ENTRIES c_btype c_bondlen
1 1.14422 
1 1.0736 
ITEM: TIMESTEP
4900
ITEM: NUMBER OF ENTRIES
2
ITEM: BOX BOUNDS pp pp pp
0.0000000000000000e+00 1.0000000000000000e+02
0.0000000000000000e+00 1.0000000000000000e+02
0.0000000000000000e+00 1.0000000000000000e+03
ITEM: ENTRIES c_btype c_bondlen
1 0.921748 
1 1.41566 
ITEM: TIMESTEP
5000
ITEM: NUMBER OF ENTRIES
2
ITEM: BOX BOUNDS pp pp pp
0.0000000000000000e+00 1.0000000000000000e+02
0.0000000000000000e+00 1.0000000000000000e+02
0.0000000000000000e+00 1.0000000000000000e+03
ITEM: ENTRIES c_btype c_bondlen
1 1.26038 
1 0.872093 
ITEM: TIMESTEP
5100
ITEM: NUMBER OF ENTRIES
2
ITEM: BOX BOUNDS pp pp pp
0.0000000000000000e+00 1.0000000000000000e+02
0.0000000000000000e+00 1.0000000000000000e+02
0.0000000000000000e+00 1.0000000000000000e+03
ITEM: ENTRIES c_btype c_bondlen
1 1.04215 
1 1.10297 
ITEM: TIMESTEP
5200
ITEM: NUMBER OF ENTRIES
2
ITEM: BOX BOUNDS pp pp pp
0.0000000000000000e+00 1.0000000000000000e+02
0.0000000000000000e+00 1.0000000000000000e+02
0.0000000000000000e+00 1.0000000000000000e+03
ITEM: ENTRIES c_btype c_bondlen
1 1.26303 
1 1.21426 
ITEM: TIMESTEP
5300
ITEM: NUMBER OF ENTRIES
2
ITEM: BOX BOUNDS pp pp pp
0.0000000000000000e+00 1.0000000000000000e+02
0.0000000000000000e+00 1.0000000000000000e+02
0.0000000000000000e+00 1.0000000000000000e+03
ITEM: ENTRIES c_btype c_bondlen
1 1.44978 
1 1.31656 
ITEM: TIMESTEP
5400
ITEM: NUMBER OF ENTRIES
2
ITEM: BOX BOUNDS pp pp pp
0.0000000000000000e+00 1.0000000000000000e+02
0.0000000000000000e+00 1.0000000000000000e+02
0.0000000000000000e+00 1.0000000000000000e+03
ITEM: ENTRIES c_btype c_bondlen
1 1.08518 
1 1.2824 
ITEM: TIMESTEP
5500
ITEM: NUMBER OF ENTRIES
2
ITEM: BOX BOUNDS pp pp pp
0.0000000000000000e+00 1.0000000000000000e+02
0.0000000000000000e+00 1.0000000000000000e+02
0.0000000000000000e+00 1.0000000000000000e+03
ITEM: ENTRIES c_btype c_bondlen
1 0.908387 
1 1.2872 
ITEM: TIMESTEP
5600
ITEM: NUMBER OF ENTRIES
2
ITEM: BOX BOUNDS pp pp pp
0.0000000000000000e+00 1.0000000000000000e+02
0.0000000000000000e+00 1.0000000000000000e+02
0.0000000000000000e+00 1.0000000000000000e+03
ITEM: ENTRIES c_btype c_bondlen
1 1.28215 
1 0.729242 
ITEM: TIMESTEP
5700
ITEM: NUMBER OF ENTRIES
2
ITEM: BOX BOUNDS pp pp pp
0.0000000000000000e+00 1.0000000000000000e+02
0.0000000000000000e+00 1.0000000000000000e+02
0.0000000000000000e+00 1.0000000000000000e+03
ITEM: ENTRIES c_btype c_bondlen
1 1.04744 
1 1.54007 
ITEM: TIMESTEP
5800
ITEM: NUMBER OF ENTRIES
2
ITEM: BOX BOUNDS pp pp pp
0.0000000000000000e+00 1.0000000000000000e+02
0.0000000000000000e+00 1.0000000000000000e+02
0.0000000000000000e+00 1.0000000000000000e+03
ITEM: ENTRIES c_btype c_bondlen
1 1.40306 
1 0.820742 
ITEM: TIMESTEP
5900
ITEM: NUMBER OF ENTRIES
2
ITEM: BOX BOUNDS pp pp pp
0.0000000000000000e+00 1.0000000000000000e+02
0.0000000000000000e+00 1.0000000000000000e+02
0.0000000000000000e+00 1.0000000000000000e+03
ITEM: ENTRIES c_btype c_bondlen
1 0.838569 
1 1.22864 
ITEM: TIMESTEP
6000
ITEM: NUMBER OF ENTRIES
2
ITEM: BOX BOUNDS pp pp pp
0.0000000000000000e+00 1.0000000000000000e+02
0.0000000000000000e+00 1.0000000000000000e+02
0.0000000000000000e+00 1.0000000000000000e+03
ITEM: ENTRIES c_btype c_bondlen
1 0.89953 
1 0.716807 
ITEM: TIMESTEP
6100
ITEM: NUMBER OF ENTRIES
2
ITEM: BOX BOUNDS pp pp pp
0.0000000000000000e+00 1.0000000000000000e+02
0.0000000000000000e+00 1.0000000000000000e+02
0.0000000000000000e+00 1.0000000000000000e+03
ITEM: ENTRIES c_btype c_bondlen
1 0.787089 
1 0.979615 
ITEM: TIMESTEP
6200
ITEM: NUMBER OF ENTRIES
2
ITEM: BOX BOUNDS pp pp pp
0.0000000000000000e+00 1.0000000000000000e+02
0.0000000000000000e+00 1.0000000000000000e+02
0.0000000000000000e+00 1.0000000000000000e+03
ITEM: ENTRIES c_btype c_bondlen
1 1.21632 
1 1.13647 
ITEM: TIMESTEP
6300
ITEM: NUMBER OF ENTRIES
2
ITEM: BOX BOUNDS pp pp pp
0.0000000000000000e+00 1.0000000000000000e+02
0.0000000000000000e+00 1.0000000000000000e+02
0.0000000000000000e+00 1.0000000000000000e+03
ITEM: ENTRIES c_btype c_bondlen
1 1.51436 
1 1.45998 
ITEM: TIMESTEP
6400
ITEM: NUMBER OF ENTRIES
2
ITEM: BOX BOUNDS pp pp pp
0.0000000000000000e+00 1.0000000000000000e+02
0.0000000000000000e+00 1.0000000000000000e+02
0.0000000000000000e+00 1.0000000000000000e+03
ITEM: ENTRIES c_btype c_bondlen
1 1.48415 
1 1.49659 
ITEM: TIMESTEP
6500
ITEM: NUMBER OF ENTRIES
2
ITEM: BOX BOUNDS pp pp pp
0.0000000000000000e+00 1.0000000000000000e+02
0.0000000000000000e+00 1.0000000000000000e+02
0.0000000000000000e+00 1.0000000000000000e+03
ITEM: ENTRIES c_btype c_bondlen
1 0.917692 
1 0.991879 
ITEM: TIMESTEP
6600
ITEM: NUMBER OF ENTRIES
2
ITEM: BOX BOUNDS pp pp pp
0.0000000000000000e+00 1.0000000000000000e+02
0.0000000000000000e+00 1.0000000000000000e+02
0.0000000000000000e+00 1.0000000000000000e+03
ITEM: ENTRIES c_btype c_bondlen
1 0.690247 
1 0.704965 
ITEM: TIMESTEP
6700
ITEM: NUMBER OF ENTRIES
2
ITEM: BOX BOUNDS pp pp pp
0.0000000000000000e+00 1.0000000000000000e+02
0.0000000000000000e+00 1.0000000000000000e+02
0.0000000000000000e+00 1.0000000000000000e+03
ITEM: ENTRIES c_btype c_bondlen
1 0.724599 
1 1.1467 
ITEM: TIMESTEP
6800
ITEM: NUMBER OF ENTRIES
2
ITEM: BOX BOUNDS pp pp pp
0.0000000000000000e+00 1.0000000000000000e+02
0.0000000000000000e+00 1.0000000000000000e+02
0.0000000000000000e+00 1.0000000000000000e+03
ITEM: ENTRIES c_btype c_bondlen
1 1.47282 
1 0.945123 
ITEM: TIMESTEP
6900
ITEM: NUMBER OF ENTRIES
2
ITEM: BOX BOUNDS pp pp pp
0.0000000000000000e+00 1.0000000000000000e+02
0.0000000000000000e+00 1.0000000000000000e+02
0.0000000000000000e+00 1.0000000000000000e+03
ITEM: ENTRIES c_btype c_bondlen
1 1.24296 
1 1.30371 
ITEM: TIMESTEP
7000
ITEM: NUMBER OF ENTRIES
2
ITEM: BOX BOUNDS pp pp pp
0.0000000000000000e+00 1.0000000000000000e+02
0.0000000000000000e+00 1.0000000000000000e+02
0.0000000000000000e+00 1.0000000000000000e+03
ITEM: ENTRIES c_btype c_bondlen
1 1.18623 
1 1.16546 
ITEM: TIMESTEP
7100
ITEM: NUMBER OF ENTRIES
2
ITEM: BOX BOUNDS pp pp pp
0.0000000000000000e+00 1.0000000000000000e+02
0.0000000000000000e+00 1.0000000000000000e+02
0.0000000000000000e+00 1.0000000000000000e+03
ITEM: ENTRIES c_btype c_bondlen
1 1.19985 
1 0.93715 
ITEM: TIMESTEP
7200
ITEM: NUMBER OF ENTRIES
2
ITEM: BOX BOUNDS pp pp pp
0.0000000000000000e+00 1.0000000000000000e+02
0.0000000000000000e+00 1.0000000000000000e+02
0.0000000000000000e+00 1.0000000000000000e+03
ITEM: ENTRIES c_btype c_bondlen
1 1.22062 
1 1.48387 
ITEM: TIMESTEP
7300
ITEM: NUMBER OF ENTRIES
2
ITEM: BOX BOUNDS pp pp pp
0.0000000000000000e+00 1.0000000000000000e+02
0.0000000000000000e+00 1.0000000000000000e+02
0.0000000000000000e+00 1.0000000000000000e+03
ITEM: ENTRIES c_btype c_bondlen
1 1.47724 
1 1.2682 
ITEM: TIMESTEP
7400
ITEM: NUMBER OF ENTRIES
2
ITEM: BOX BOUNDS pp pp pp
0.0000000000000000e+00 1.0000000000000000e+02
0.0000000000000000e+00 1.0000000000000000e+02
0.0000000000000000e+00 1.0000000000000000e+03
ITEM: ENTRIES c_btype c_bondlen
1 1.47353 
1 1.41715 
ITEM: TIMESTEP
7500
ITEM: NUMBER OF ENTRIES
2
ITEM: BOX BOUNDS pp pp pp
0.0000000000000000e+00 1.0000000000000000e+02
0.0000000000000000e+00 1.0000000000000000e+02
0.0000000000000000e+00 1.0000000000000000e+03
ITEM: ENTRIES c_btype c_bondlen
1 1.31906 
1 1.22804 
ITEM: TIMESTEP
7600
ITEM: NUMBER OF ENTRIES
2
ITEM: BOX BOUNDS pp pp pp
0.0000000000000000e+00 1.0000000000000000e+02
0.0000000000000000e+00 1.0000000000000000e+02
0.0000000000000000e+00 1.0000000000000000e+03
ITEM: ENTRIES c_btype c_bondlen
1 0.903048 
1 1.27134 
ITEM: TIMESTEP
7700
ITEM: NUMBER OF ENTRIES
2
ITEM: BOX BOUNDS pp pp pp
0.0000000000000000e+00 1.0000000000000000e+02
0.0000000000000000e+00 1.0000000000000000e+02
0.0000000000000000e+00 1.0000000000000000e+03
ITEM: ENTRIES c_btype c_bondlen
1 0.941939 
1 0.755085 
ITEM: TIMESTEP
7800
ITEM: NUMBER OF ENTRIES
2
ITEM: BOX BOUNDS pp pp pp
0.0000000000000000e+00 1.0000000000000000e+02
0.0000000000000000e+00 1.0000000000000000e+02
0.0000000000000000e+00 1.0000000000000000e+03
ITEM: ENTRIES c_btype c_bondlen
1 0.951917 
1 1.12424 
ITEM: TIMESTEP
7900
ITEM: NUMBER OF ENTRIES
2
ITEM: BOX BOUNDS pp pp pp
0.0000000000000000e+00 1.0000000000000000e+02
0.0000000000000000e+00 1.0000000000000000e+02
0.0000000000000000e+00 1.0000000000000000e+03
ITEM: ENTRIES c_btype c_bondlen
1 1.2471 
1 1.05476 
ITEM: TIMESTEP
8000
ITEM: NUMBER OF ENTRIES
2
ITEM: BOX BOUNDS pp pp pp
0.0000000000000000e+00 1.0000000000000000e+02
0.0000000000000000e+00 1.0000000000000000e+02
0.0000000000000000e+00 1.0000000000000000e+03
ITEM: ENTRIES c_btype c_bondlen
1 0.694874 
1 1.16219 
ITEM: TIMESTEP
8100
ITEM: NUMBER OF ENTRIES
2
ITEM: BOX BOUNDS pp pp pp
0.0000000000000000e+00 1.0000000000000000e+02
0.0000000000000000e+00 1.0000000000000000e+02
0.0000000000000000e+00 1.0000000000000000e+03
ITEM: ENTRIES c_btype c_bondlen
1 0.792029 
1 0.705296 
ITEM: TIMESTEP
8200
ITEM: NUMBER OF ENTRIES
2
ITEM: BOX BOUNDS pp pp pp
0.0000000000000000e+00 1.0000000000000000e+02
0.0000000000000000e+00 1.0000000000000000e+02
0.0000000000000000e+00 1.0000000000000000e+03
ITEM: ENTRIES c_btype c_bondlen
1 0.866992 
1 1.26195 
ITEM: TIMESTEP
8300
ITEM: NUMBER OF ENTRIES
2
ITEM: BOX BOUNDS pp pp pp
0.0000000000000000e+00 1.0000000000000000e+02
0.0000000000000000e+00 1.0000000000000000e+02
0.0000000000000000e+00 1.0000000000000000e+03
ITEM: ENTRIES c_btype c_bondlen
1 1.57094 
1 0.92889 
ITEM: TIMESTEP
8400
ITEM: NUMBER OF ENTRIES
2
ITEM: BOX BOUNDS pp pp pp
0.0000000000000000e+00 1.0000000000000000e+02
0.0000000000000000e+00 1.0000000000000000e+02
0.0000000000000000e+00 1.0000000000000000e+03
ITEM: ENTRIES c_btype c_bondlen
1 1.09344 
1 1.79532 
ITEM: TIMESTEP
8500
ITEM: NUMBER OF ENTRIES
2
ITEM: BOX BOUNDS pp pp pp
0.0000000000000000e+00 1.0000000000000000e+02
0.0000000000000000e+00 1.0000000000000000e+02
0.0000000000000000e+00 1.0000000000000000e+03
ITEM: ENTRIES c_btype c_bondlen
1 1.7602 
1 1.09846 
ITEM: TIMESTEP
8600
ITEM: NUMBER OF ENTRIES
2
ITEM: BOX BOUNDS pp pp pp
0.0000000000000000e+00 1.0000000000000000e+02
0.0000000000000000e+00 1.0000000000000000e+02
0.0000000000000000e+00 1.0000000000000000e+03
ITEM: ENTRIES c_btype c_bondlen
1 1.16423 
1 1.44512 
ITEM: TIMESTEP
8700
ITEM: NUMBER OF ENTRIES
2
ITEM: BOX BOUNDS pp pp pp
0.0000000000000000e+00 1.0000000000000000e+02
0.0000000000000000e+00 1.0000000000000000e+02
0.0000000000000000e+00 1.0000000000000000e+03
ITEM: ENTRIES c_btype c_bondlen
1 0.878227 
1 1.17044 
ITEM: TIMESTEP
8800
ITEM: NUMBER OF ENTRIES
2
ITEM: BOX BOUNDS pp pp pp
0.0000000000000000e+00 1.0000000000000000e+02
0.0000000000000000e+00 1.0000000000000000e+02
0.0000000000000000e+00 1.0000000000000000e+03
ITEM: ENTRIES c_btype c_bondlen
1 0.917991 
1 1.00404 
ITEM: TIMESTEP
8900
ITEM: NUMBER OF ENTRIES
2
ITEM: BOX BOUNDS pp pp pp
0.0000000000000000e+00 1.0000000000000000e+02
0.0000000000000000e+00 1.0000000000000000e+02
0.0000000000000000e+00 1.0000000000000000e+03
ITEM: ENTRIES c_btype c_bondlen
1 1.00557 
1 0.981782 
ITEM: TIMESTEP
9000
ITEM: NUMBER OF ENTRIES
2
ITEM: BOX BOUNDS pp pp pp
0.0000000000000000e+00 1.0000000000000000e+02
0.0000000000000000e+00 1.0000000000000000e+02
0.0000000000000000e+00 1.0000000000000000e+03
ITEM: ENTRIES c_btype c_bondlen
1 1.09617 
1 1.22037 
ITEM: TIMESTEP
9100
ITEM: NUMBER OF ENTRIES
2
ITEM: BOX BOUNDS pp pp pp
0.0000000000000000e+00 1.0000000000000000e+02
0.0000000000000000e+00 1.0000000000000000e+02
0.0000000000000000e+00 1.0000000000000000e+03
ITEM: ENTRIES c_btype c_bondlen
1 1.21245 
1 1.18975 
ITEM: TIMESTEP
9200
ITEM: NUMBER OF ENTRIES
2
ITEM: BOX BOUNDS pp pp pp
0.0000000000000000e+00 1.0000000000000000e+02
0.0000000000000000e+00 1.0000000000000000e+02
0.0000000000000000e+00 1.0000000000000000e+03
ITEM: ENTRIES c_btype c_bondlen
1 1.21495 
1 0.839868 
ITEM: TIMESTEP
9300
ITEM: NUMBER OF ENTRIES
2
ITEM: BOX BOUNDS pp pp pp
0.0000000000000000e+00 1.0000000000000000e+02
0.0000000000000000e+00 1.0000000000000000e+02
0.0000000000000000e+00 1.0000000000000000e+03
ITEM: ENTRIES c_btype c_bondlen
1 1.01118 
1 1.50356 
ITEM: TIMESTEP
9400
ITEM: NUMBER OF ENTRIES
2
ITEM: BOX BOUNDS pp pp pp
0.0000000000000000e+00 1.0000000000000000e+02
0.0000000000000000e+00 1.0000000000000000e+02
0.0000000000000000e+00 1.0000000000000000e+03
ITEM: ENTRIES c_btype c_bondlen
1 1.48537 
1 1.37534 
ITEM: TIMESTEP
9500
ITEM: NUMBER OF ENTRIES
2
ITEM: BOX BOUNDS pp pp pp
0.0000000000000000e+00 1.0000000000000000e+02
0.0000000000000000e+00 1.0000000000000000e+02
0.0000000000000000e+00 1.0000000000000000e+03
ITEM: ENTRIES c_btype c_bondlen
1 1.28016 
1 1.28441 
ITEM: TIMESTEP
9600
ITEM: NUMBER OF ENTRIES
2
ITEM: BOX BOUNDS pp pp pp
0.0000000000000000e+00 1.0000000000000000e+02
0.0000000000000000e+00 1.0000000000000000e+02
0.0000000000000000e+00 1.0000000000000000e+03
ITEM: ENTRIES c_btype c_bondlen
1 1.03586 
1 1.44288 
ITEM: TIMESTEP
9700
ITEM: NUMBER OF ENTRIES
2
ITEM: BOX BOUNDS pp pp pp
0.0000000000000000e+00 1.0000000000000000e+02
0.0000000000000000e+00 1.0000000000000000e+02
0.0000000000000000e+00 1.0000000000000000e+03
ITEM: ENTRIES c_btype c_bondlen
1 1.32482 
1 1.04191 
ITEM: TIMESTEP
9800
ITEM: NUMBER OF ENTRIES
2
ITEM: BOX BOUNDS pp pp pp
0.0000000000000000e+00 1.0000000000000000e+02
0.0000000000000000e+00 1.0000000000000000e+02
0.0000000000000000e+00 1.0000000000000000e+03
ITEM: ENTRIES c_btype c_bondlen
1 0.957513 
1 1.04955 
ITEM: TIMESTEP
9900
ITEM: NUMBER OF ENTRIES
2
ITEM: BOX BOUNDS pp pp pp
0.0000000000000000e+00 1.0000000000000000e+02
0.0000000000000000e+00 1.0000000000000000e+02
0.0000000000000000e+00 1.0000000000000000e+03
ITEM: ENTRIES c_btype c_bondlen
1 0.873079 
1 1.20756 
ITEM: TIMESTEP
10000
ITEM: NUMBER OF ENTRIES
2
ITEM: BOX BOUNDS pp pp pp
0.0000000000000000e+00 1.0000000000000000e+02
0.0000000000000000e+00 1.0000000000000000e+02
0.0000000000000000e+00 1.0000000000000000e+03
ITEM: ENTRIES c_btype c_bondlen
1 1.21606 
1 0.981972 
ITEM: TIMESTEP
10100
ITEM: NUMBER OF ENTRIES
2
ITEM: BOX BOUNDS pp pp pp
0.0000000000000000e+00 1.0000000000000000e+02
0.0000000000000000e+00 1.0000000000000000e+02
0.0000000000000000e+00 1.0000000000000000e+03
ITEM: ENTRIES c_btype c_bondlen
1 1.44105 
1 1.66615 
ITEM: TIMESTEP
10200
ITEM: NUMBER OF ENTRIES
2
ITEM: BOX BOUNDS pp pp pp
0.0000000000000000e+00 1.0000000000000000e+02
0.0000000000000000e+00 1.0000000000000000e+02
0.0000000000000000e+00 1.0000000000000000e+03
ITEM: ENTRIES c_btype c_bondlen
1 1.77764 
1 1.51909 
ITEM: TIMESTEP
10300
ITEM: NUMBER OF ENTRIES
2
ITEM: BOX BOUNDS pp pp pp
0.0000000000000000e+00 1.0000000000000000e+02
0.0000000000000000e+00 1.0000000000000000e+02
0.0000000000000000e+00 1.0000000000000000e+03
ITEM: ENTRIES c_btype c_bondlen
1 1.15219 
1 1.16214 
ITEM: TIMESTEP
10400
ITEM: NUMBER OF ENTRIES
2
ITEM: BOX BOUNDS pp pp pp
0.0000000000000000e+00 1.0000000000000000e+02
0.0000000000000000e+00 1.0000000000000000e+02
0.0000000000000000e+00 1.0000000000000000e+03
ITEM: ENTRIES c_btype c_bondlen
1 0.978217 
1 0.906302 
ITEM: TIMESTEP
10500
ITEM: NUMBER OF ENTRIES
2
ITEM: BOX BOUNDS pp pp pp
0.0000000000000000e+00 1.0000000000000000e+02
0.0000000000000000e+00 1.0000000000000000e+02
0.0000000000000000e+00 1.0000000000000000e+03
ITEM: ENTRIES c_btype c_bondlen
1 0.80557 
1 1.55321 
ITEM: TIMESTEP
10600
ITEM: NUMBER OF ENTRIES
2
ITEM: BOX BOUNDS pp pp pp
0.0000000000000000e+00 1.0000000000000000e+02
0.0000000000000000e+00 1.0000000000000000e+02
0.0000000000000000e+00 1.0000000000000000e+03
ITEM: ENTRIES c_btype c_bondlen
1 1.83691 
1 1.06609 
ITEM: TIMESTEP
10700
ITEM: NUMBER OF ENTRIES
2
ITEM: BOX BOUNDS pp pp pp
0.0000000000000000e+00 1.0000000000000000e+02
0.0000000000000000e+00 1.0000000000000000e+02
0.0000000000000000e+00 1.0000000000000000e+03
ITEM: ENTRIES c_btype c_bondlen
1 1.45213 
1 1.68247 
ITEM: TIMESTEP
10800
ITEM: NUMBER OF ENTRIES
2
ITEM: BOX BOUNDS pp pp pp
0.0000000000000000e+00 1.0000000000000000e+02
0.0000000000000000e+00 1.0000000000000000e+02
0.0000000000000000e+00 1.0000000000000000e+03
ITEM: ENTRIES c_btype c_bondlen
1 1.52886 
1 0.589039 
ITEM: TIMESTEP
10900
ITEM: NUMBER OF ENTRIES
2
ITEM: BOX BOUNDS pp pp pp
0.0000000000000000e+00 1.0000000000000000e+02
0.0000000000000000e+00 1.0000000000000000e+02
0.0000000000000000e+00 1.0000000000000000e+03
ITEM: ENTRIES c_btype c_bondlen
1 0.479648 
1 1.29303 
ITEM: TIMESTEP
11000
ITEM: NUMBER OF ENTRIES
2
ITEM: BOX BOUNDS pp pp pp
0.0000000000000000e+00 1.0000000000000000e+02
0.0000000000000000e+00 1.0000000000000000e+02
0.0000000000000000e+00 1.0000000000000000e+03
ITEM: ENTRIES c_btype c_bondlen
1 0.910751 
1 0.615454 
ITEM: TIMESTEP
11100
ITEM: NUMBER OF ENTRIES
2
ITEM: BOX BOUNDS pp pp pp
0.0000000000000000e+00 1.0000000000000000e+02
0.0000000000000000e+00 1.0000000000000000e+02
0.0000000000000000e+00 1.0000000000000000e+03
ITEM: ENTRIES c_btype c_bondlen
1 1.03666 
1 1.0697 
ITEM: TIMESTEP
11200
ITEM: NUMBER OF ENTRIES
2
ITEM: BOX BOUNDS pp pp pp
0.0000000000000000e+00 1.0000000000000000e+02
0.0000000000000000e+00 1.0000000000000000e+02
0.0000000000000000e+00 1.0000000000000000e+03
ITEM: ENTRIES c_btype c_bondlen
1 0.921236 
1 1.12516 
ITEM: TIMESTEP
11300
ITEM: NUMBER OF ENTRIES
2
ITEM: BOX BOUNDS pp pp pp
0.0000000000000000e+00 1.0000000000000000e+02