ITEM: TIMESTEP
0
ITEM: NUMBER OF ENTRIES
1
ITEM: BOX BOUNDS pp pp pp
0.0000000000000000e+00 1.0000000000000000e+02
0.0000000000000000e+00 1.0000000000000000e+02
0.0000000000000000e+00 1.0000000000000000e+03
ITEM: ENTRIES c_myAngle
180 
ITEM: TIMESTEP
100
ITEM: NUMBER OF ENTRIES
1
ITEM: BOX BOUNDS pp pp pp
0.0000000000000000e+00 1.0000000000000000e+02
0.0000000000000000e+00 1.0000000000000000e+02
0.0000000000000000e+00 1.0000000000000000e+03
ITEM: ENTRIES c_myAngle
179.937 
ITEM: TIMESTEP
200
ITEM: NUMBER OF ENTRIES
1
ITEM: BOX BOUNDS pp pp pp
0.0000000000000000e+00 1.0000000000000000e+02
0.0000000000000000e+00 1.0000000000000000e+02
0.0000000000000000e+00 1.0000000000000000e+03
ITEM: ENTRIES c_myAngle
179.892 
ITEM: TIMESTEP
300
ITEM: NUMBER OF ENTRIES
1
ITEM: BOX BOUNDS pp pp pp
0.0000000000000000e+00 1.0000000000000000e+02
0.0000000000000000e+00 1.0000000000000000e+02
0.0000000000000000e+00 1.0000000000000000e+03
ITEM: ENTRIES c_myAngle
179.575 
ITEM: TIMESTEP
400
ITEM: NUMBER OF ENTRIES
1
ITEM: BOX BOUNDS pp pp pp
0.0000000000000000e+00 1.0000000000000000e+02
0.0000000000000000e+00 1.0000000000000000e+02
0.0000000000000000e+00 1.0000000000000000e+03
ITEM: ENTRIES c_myAngle
178.864 
ITEM: TIMESTEP
500
ITEM: NUMBER OF ENTRIES
1
ITEM: BOX BOUNDS pp pp pp
0.0000000000000000e+00 1.0000000000000000e+02
0.0000000000000000e+00 1.0000000000000000e+02
0.0000000000000000e+00 1.0000000000000000e+03
ITEM: ENTRIES c_myAngle
178.514 
ITEM: TIMESTEP
600
ITEM: NUMBER OF ENTRIES
1
ITEM: BOX BOUNDS pp pp pp
0.0000000000000000e+00 1.0000000000000000e+02
0.0000000000000000e+00 1.0000000000000000e+02
0.0000000000000000e+00 1.0000000000000000e+03
ITEM: ENTRIES c_myAngle
178.153 
ITEM: TIMESTEP
700
ITEM: NUMBER OF ENTRIES
1
ITEM: BOX BOUNDS pp pp pp
0.0000000000000000e+00 1.0000000000000000e+02
0.0000000000000000e+00 1.0000000000000000e+02
0.0000000000000000e+00 1.0000000000000000e+03
ITEM: ENTRIES c_myAngle
177.845 
ITEM: TIMESTEP
800
ITEM: NUMBER OF ENTRIES
1
ITEM: BOX BOUNDS pp pp pp
0.0000000000000000e+00 1.0000000000000000e+02
0.0000000000000000e+00 1.0000000000000000e+02
0.0000000000000000e+00 1.0000000000000000e+03
ITEM: ENTRIES c_myAngle
177.855 
ITEM: TIMESTEP
900
ITEM: NUMBER OF ENTRIES
1
ITEM: BOX BOUNDS pp pp pp
0.0000000000000000e+00 1.0000000000000000e+02
0.0000000000000000e+00 1.0000000000000000e+02
0.0000000000000000e+00 1.0000000000000000e+03
ITEM: ENTRIES c_myAngle
177.939 
ITEM: TIMESTEP
1000
ITEM: NUMBER OF ENTRIES
1
ITEM: BOX BOUNDS pp pp pp
0.0000000000000000e+00 1.0000000000000000e+02
0.0000000000000000e+00 1.0000000000000000e+02
0.0000000000000000e+00 1.0000000000000000e+03
ITEM: ENTRIES c_myAngle
178.005 
ITEM: TIMESTEP
1100
ITEM: NUMBER OF ENTRIES
1
ITEM: BOX BOUNDS pp pp pp
0.0000000000000000e+00 1.0000000000000000e+02
0.0000000000000000e+00 1.0000000000000000e+02
0.0000000000000000e+00 1.0000000000000000e+03
ITEM: ENTRIES c_myAngle
178.053 
ITEM: TIMESTEP
1200
ITEM: NUMBER OF ENTRIES
1
ITEM: BOX BOUNDS pp pp pp
0.0000000000000000e+00 1.0000000000000000e+02
0.0000000000000000e+00 1.0000000000000000e+02
0.0000000000000000e+00 1.0000000000000000e+03
ITEM: ENTRIES c_myAngle
178.154 
ITEM: TIMESTEP
1300
ITEM: NUMBER OF ENTRIES
1
ITEM: BOX BOUNDS pp pp pp
0.0000000000000000e+00 1.0000000000000000e+02
0.0000000000000000e+00 1.0000000000000000e+02
0.0000000000000000e+00 1.0000000000000000e+03
ITEM: ENTRIES c_myAngle
177.757 
ITEM: TIMESTEP
1400
ITEM: NUMBER OF ENTRIES
1
ITEM: BOX BOUNDS pp pp pp
0.0000000000000000e+00 1.0000000000000000e+02
0.0000000000000000e+00 1.0000000000000000e+02
0.0000000000000000e+00 1.0000000000000000e+03
ITEM: ENTRIES c_myAngle
177.357 
ITEM: TIMESTEP
1500
ITEM: NUMBER OF ENTRIES
1
ITEM: BOX BOUNDS pp pp pp
0.0000000000000000e+00 1.0000000000000000e+02
0.0000000000000000e+00 1.0000000000000000e+02
0.0000000000000000e+00 1.0000000000000000e+03
ITEM: ENTRIES c_myAngle
176.786 
ITEM: TIMESTEP
1600
ITEM: NUMBER OF ENTRIES
1
ITEM: BOX BOUNDS pp pp pp
0.0000000000000000e+00 1.0000000000000000e+02
0.0000000000000000e+00 1.0000000000000000e+02
0.0000000000000000e+00 1.0000000000000000e+03
ITEM: ENTRIES c_myAngle
175.86 
ITEM: TIMESTEP
1700
ITEM: NUMBER OF ENTRIES
1
ITEM: BOX BOUNDS pp pp pp
0.0000000000000000e+00 1.0000000000000000e+02
0.0000000000000000e+00 1.0000000000000000e+02
0.0000000000000000e+00 1.0000000000000000e+03
ITEM: ENTRIES c_myAngle
174.971 
ITEM: TIMESTEP
1800
ITEM: NUMBER OF ENTRIES
1
ITEM: BOX BOUNDS pp pp pp
0.0000000000000000e+00 1.0000000000000000e+02
0.0000000000000000e+00 1.0000000000000000e+02
0.0000000000000000e+00 1.0000000000000000e+03
ITEM: ENTRIES c_myAngle
174.589 
ITEM: TIMESTEP
1900
ITEM: NUMBER OF ENTRIES
1
ITEM: BOX BOUNDS pp pp pp
0.0000000000000000e+00 1.0000000000000000e+02
0.0000000000000000e+00 1.0000000000000000e+02
0.0000000000000000e+00 1.0000000000000000e+03
ITEM: ENTRIES c_myAngle
174.584 
ITEM: TIMESTEP
2000
ITEM: NUMBER OF ENTRIES
1
ITEM: BOX BOUNDS pp pp pp
0.0000000000000000e+00 1.0000000000000000e+02
0.0000000000000000e+00 1.0000000000000000e+02
0.0000000000000000e+00 1.0000000000000000e+03
ITEM: ENTRIES c_myAngle
175.312 
ITEM: TIMESTEP
2100
ITEM: NUMBER OF ENTRIES
1
ITEM: BOX BOUNDS pp pp pp
0.0000000000000000e+00 1.0000000000000000e+02
0.0000000000000000e+00 1.0000000000000000e+02
0.0000000000000000e+00 1.0000000000000000e+03
ITEM: ENTRIES c_myAngle
176.254 
ITEM: TIMESTEP
2200
ITEM: NUMBER OF ENTRIES
1
ITEM: BOX BOUNDS pp pp pp
0.0000000000000000e+00 1.0000000000000000e+02
0.0000000000000000e+00 1.0000000000000000e+02
0.0000000000000000e+00 1.0000000000000000e+03
ITEM: ENTRIES c_myAngle
177.212 
ITEM: TIMESTEP
2300
ITEM: NUMBER OF ENTRIES
1
ITEM: BOX BOUNDS pp pp pp
0.0000000000000000e+00 1.0000000000000000e+02
0.0000000000000000e+00 1.0000000000000000e+02
0.0000000000000000e+00 1.0000000000000000e+03
ITEM: ENTRIES c_myAngle
178.088 
ITEM: TIMESTEP
2400
ITEM: NUMBER OF ENTRIES
1
ITEM: BOX BOUNDS pp pp pp
0.0000000000000000e+00 1.0000000000000000e+02
0.0000000000000000e+00 1.0000000000000000e+02
0.0000000000000000e+00 1.0000000000000000e+03
ITEM: ENTRIES c_myAngle
178.915 
ITEM: TIMESTEP
2500
ITEM: NUMBER OF ENTRIES
1
ITEM: BOX BOUNDS pp pp pp
0.0000000000000000e+00 1.0000000000000000e+02
0.0000000000000000e+00 1.0000000000000000e+02
0.0000000000000000e+00 1.0000000000000000e+03
ITEM: ENTRIES c_myAngle
179.139 
ITEM: TIMESTEP
2600
ITEM: NUMBER OF ENTRIES
1
ITEM: BOX BOUNDS pp pp pp
0.0000000000000000e+00 1.0000000000000000e+02
0.0000000000000000e+00 1.0000000000000000e+02
0.0000000000000000e+00 1.0000000000000000e+03
ITEM: ENTRIES c_myAngle
176.58 
ITEM: TIMESTEP
2700
ITEM: NUMBER OF ENTRIES
1
ITEM: BOX BOUNDS pp pp pp
0.0000000000000000e+00 1.0000000000000000e+02
0.0000000000000000e+00 1.0000000000000000e+02
0.0000000000000000e+00 1.0000000000000000e+03
ITEM: ENTRIES c_myAngle
172.733 
ITEM: TIMESTEP
2800
ITEM: NUMBER OF ENTRIES
1
ITEM: BOX BOUNDS pp pp pp
0.0000000000000000e+00 1.0000000000000000e+02
0.0000000000000000e+00 1.0000000000000000e+02
0.0000000000000000e+00 1.0000000000000000e+03
ITEM: ENTRIES c_myAngle
168.175 
ITEM: TIMESTEP
2900
ITEM: NUMBER OF ENTRIES
1
ITEM: BOX BOUNDS pp pp pp
0.0000000000000000e+00 1.0000000000000000e+02
0.0000000000000000e+00 1.0000000000000000e+02
0.0000000000000000e+00 1.0000000000000000e+03
ITEM: ENTRIES c_myAngle
163.347 
ITEM: TIMESTEP
3000
ITEM: NUMBER OF ENTRIES
1
ITEM: BOX BOUNDS pp pp pp
0.0000000000000000e+00 1.0000000000000000e+02
0.0000000000000000e+00 1.0000000000000000e+02
0.0000000000000000e+00 1.0000000000000000e+03
ITEM: ENTRIES c_myAngle
158.337 
ITEM: TIMESTEP
3100
ITEM: NUMBER OF ENTRIES
1
ITEM: BOX BOUNDS pp pp pp
0.0000000000000000e+00 1.0000000000000000e+02
0.0000000000000000e+00 1.0000000000000000e+02
0.0000000000000000e+00 1.0000000000000000e+03
ITEM: ENTRIES c_myAngle
153.457 
ITEM: TIMESTEP
3200
ITEM: NUMBER OF ENTRIES
1
ITEM: BOX BOUNDS pp pp pp
0.0000000000000000e+00 1.0000000000000000e+02
0.0000000000000000e+00 1.0000000000000000e+02
0.0000000000000000e+00 1.0000000000000000e+03
ITEM: ENTRIES c_myAngle
149.94 
ITEM: TIMESTEP
3300
ITEM: NUMBER OF ENTRIES
1
ITEM: BOX BOUNDS pp pp pp
0.0000000000000000e+00 1.0000000000000000e+02
0.0000000000000000e+00 1.0000000000000000e+02
0.0000000000000000e+00 1.0000000000000000e+03
ITEM: ENTRIES c_myAngle
148.363 
ITEM: TIMESTEP
3400
ITEM: NUMBER OF ENTRIES
1
ITEM: BOX BOUNDS pp pp pp
0.0000000000000000e+00 1.0000000000000000e+02
0.0000000000000000e+00 1.0000000000000000e+02
0.0000000000000000e+00 1.0000000000000000e+03
ITEM: ENTRIES c_myAngle
150.654 
ITEM: TIMESTEP
3500
ITEM: NUMBER OF ENTRIES
1
ITEM: BOX BOUNDS pp pp pp
0.0000000000000000e+00 1.0000000000000000e+02
0.0000000000000000e+00 1.0000000000000000e+02
0.0000000000000000e+00 1.0000000000000000e+03
ITEM: ENTRIES c_myAngle
158.532 
ITEM: TIMESTEP
3600
ITEM: NUMBER OF ENTRIES
1
ITEM: BOX BOUNDS pp pp pp
0.0000000000000000e+00 1.0000000000000000e+02
0.0000000000000000e+00 1.0000000000000000e+02
0.0000000000000000e+00 1.0000000000000000e+03
ITEM: ENTRIES c_myAngle
172.564 
ITEM: TIMESTEP
3700
ITEM: NUMBER OF ENTRIES
1
ITEM: BOX BOUNDS pp pp pp
0.0000000000000000e+00 1.0000000000000000e+02
0.0000000000000000e+00 1.0000000000000000e+02
0.0000000000000000e+00 1.0000000000000000e+03
ITEM: ENTRIES c_myAngle
162.854 
ITEM: TIMESTEP
3800
ITEM: NUMBER OF ENTRIES
1
ITEM: BOX BOUNDS pp pp pp
0.0000000000000000e+00 1.0000000000000000e+02
0.0000000000000000e+00 1.0000000000000000e+02
0.0000000000000000e+00 1.0000000000000000e+03
ITEM: ENTRIES c_myAngle
146.54 
ITEM: TIMESTEP
3900
ITEM: NUMBER OF ENTRIES
1
ITEM: BOX BOUNDS pp pp pp
0.0000000000000000e+00 1.0000000000000000e+02
0.0000000000000000e+00 1.0000000000000000e+02
0.0000000000000000e+00 1.0000000000000000e+03
ITEM: ENTRIES c_myAngle
140.34 
ITEM: TIMESTEP
4000
ITEM: NUMBER OF ENTRIES
1
ITEM: BOX BOUNDS pp pp pp
0.0000000000000000e+00 1.0000000000000000e+02
0.0000000000000000e+00 1.0000000000000000e+02
0.0000000000000000e+00 1.0000000000000000e+03
ITEM: ENTRIES c_myAngle
141.836 
ITEM: TIMESTEP
4100
ITEM: NUMBER OF ENTRIES
1
ITEM: BOX BOUNDS pp pp pp
0.0000000000000000e+00 1.0000000000000000e+02
0.0000000000000000e+00 1.0000000000000000e+02
0.0000000000000000e+00 1.0000000000000000e+03
ITEM: ENTRIES c_myAngle
148.423 
ITEM: TIMESTEP
4200
ITEM: NUMBER OF ENTRIES
1
ITEM: BOX BOUNDS pp pp pp
0.0000000000000000e+00 1.0000000000000000e+02
0.0000000000000000e+00 1.0000000000000000e+02
0.0000000000000000e+00 1.0000000000000000e+03
ITEM: ENTRIES c_myAngle
157.761 
ITEM: TIMESTEP
4300
ITEM: NUMBER OF ENTRIES
1
ITEM: BOX BOUNDS pp pp pp
0.0000000000000000e+00 1.0000000000000000e+02
0.0000000000000000e+00 1.0000000000000000e+02
0.0000000000000000e+00 1.0000000000000000e+03
ITEM: ENTRIES c_myAngle
168.213 
ITEM: TIMESTEP
4400
ITEM: NUMBER OF ENTRIES
1
ITEM: BOX BOUNDS pp pp pp
0.0000000000000000e+00 1.0000000000000000e+02
0.0000000000000000e+00 1.0000000000000000e+02
0.0000000000000000e+00 1.0000000000000000e+03
ITEM: ENTRIES c_myAngle
178.083 
ITEM: TIMESTEP
4500
ITEM: NUMBER OF ENTRIES
1
ITEM: BOX BOUNDS pp pp pp
0.0000000000000000e+00 1.0000000000000000e+02
0.0000000000000000e+00 1.0000000000000000e+02
0.0000000000000000e+00 1.0000000000000000e+03
ITEM: ENTRIES c_myAngle
172.636 
ITEM: TIMESTEP
4600
ITEM: NUMBER OF ENTRIES
1
ITEM: BOX BOUNDS pp pp pp
0.0000000000000000e+00 1.0000000000000000e+02
0.0000000000000000e+00 1.0000000000000000e+02
0.0000000000000000e+00 1.0000000000000000e+03
ITEM: ENTRIES c_myAngle
164.65 
ITEM: TIMESTEP
4700
ITEM: NUMBER OF ENTRIES
1
ITEM: BOX BOUNDS pp pp pp
0.0000000000000000e+00 1.0000000000000000e+02
0.0000000000000000e+00 1.0000000000000000e+02
0.0000000000000000e+00 1.0000000000000000e+03
ITEM: ENTRIES c_myAngle
156.843 
ITEM: TIMESTEP
4800
ITEM: NUMBER OF ENTRIES
1
ITEM: BOX BOUNDS pp pp pp
0.0000000000000000e+00 1.0000000000000000e+02
0.0000000000000000e+00 1.0000000000000000e+02
0.0000000000000000e+00 1.0000000000000000e+03
ITEM: ENTRIES c_myAngle
150.569 
ITEM: TIMESTEP
4900
ITEM: NUMBER OF ENTRIES
1
ITEM: BOX BOUNDS pp pp pp
0.0000000000000000e+00 1.0000000000000000e+02
0.0000000000000000e+00 1.0000000000000000e+02
0.0000000000000000e+00 1.0000000000000000e+03
ITEM: ENTRIES c_myAngle
145.548 
ITEM: TIMESTEP
5000
ITEM: NUMBER OF ENTRIES
1
ITEM: BOX BOUNDS pp pp pp
0.0000000000000000e+00 1.0000000000000000e+02
0.0000000000000000e+00 1.0000000000000000e+02
0.0000000000000000e+00 1.0000000000000000e+03
ITEM: ENTRIES c_myAngle
141.642 
ITEM: TIMESTEP
5100
ITEM: NUMBER OF ENTRIES
1
ITEM: BOX BOUNDS pp pp pp
0.0000000000000000e+00 1.0000000000000000e+02
0.0000000000000000e+00 1.0000000000000000e+02
0.0000000000000000e+00 1.0000000000000000e+03
ITEM: ENTRIES c_myAngle
139.042 
ITEM: TIMESTEP
5200
ITEM: NUMBER OF ENTRIES
1
ITEM: BOX BOUNDS pp pp pp
0.0000000000000000e+00 1.0000000000000000e+02
0.0000000000000000e+00 1.0000000000000000e+02
0.0000000000000000e+00 1.0000000000000000e+03
ITEM: ENTRIES c_myAngle
138.509 
ITEM: TIMESTEP
5300
ITEM: NUMBER OF ENTRIES
1
ITEM: BOX BOUNDS pp pp pp
0.0000000000000000e+00 1.0000000000000000e+02
0.0000000000000000e+00 1.0000000000000000e+02
0.0000000000000000e+00 1.0000000000000000e+03
ITEM: ENTRIES c_myAngle
138.186 
ITEM: TIMESTEP
5400
ITEM: NUMBER OF ENTRIES
1
ITEM: BOX BOUNDS pp pp pp
0.0000000000000000e+00 1.0000000000000000e+02
0.0000000000000000e+00 1.0000000000000000e+02
0.0000000000000000e+00 1.0000000000000000e+03
ITEM: ENTRIES c_myAngle
133.307 
ITEM: TIMESTEP
5500
ITEM: NUMBER OF ENTRIES
1
ITEM: BOX BOUNDS pp pp pp
0.0000000000000000e+00 1.0000000000000000e+02
0.0000000000000000e+00 1.0000000000000000e+02
0.0000000000000000e+00 1.0000000000000000e+03
ITEM: ENTRIES c_myAngle
137.542 
ITEM: TIMESTEP
5600
ITEM: NUMBER OF ENTRIES
1
ITEM: BOX BOUNDS pp pp pp
0.0000000000000000e+00 1.0000000000000000e+02
0.0000000000000000e+00 1.0000000000000000e+02
0.0000000000000000e+00 1.0000000000000000e+03
ITEM: ENTRIES c_myAngle
144.622 
ITEM: TIMESTEP
5700
ITEM: NUMBER OF ENTRIES
1
ITEM: BOX BOUNDS pp pp pp
0.0000000000000000e+00 1.0000000000000000e+02
0.0000000000000000e+00 1.0000000000000000e+02
0.0000000000000000e+00 1.0000000000000000e+03
ITEM: ENTRIES c_myAngle
143.745 
ITEM: TIMESTEP
5800
ITEM: NUMBER OF ENTRIES
1
ITEM: BOX BOUNDS pp pp pp
0.0000000000000000e+00 1.0000000000000000e+02
0.0000000000000000e+00 1.0000000000000000e+02
0.0000000000000000e+00 1.0000000000000000e+03
ITEM: ENTRIES c_myAngle
141.639 
ITEM: TIMESTEP
5900
ITEM: NUMBER OF ENTRIES
1
ITEM: BOX BOUNDS pp pp pp
0.0000000000000000e+00 1.0000000000000000e+02
0.0000000000000000e+00 1.0000000000000000e+02
0.0000000000000000e+00 1.0000000000000000e+03
ITEM: ENTRIES c_myAngle
141.272 
ITEM: TIMESTEP
6000
ITEM: NUMBER OF ENTRIES
1
ITEM: BOX BOUNDS pp pp pp
0.0000000000000000e+00 1.0000000000000000e+02
0.0000000000000000e+00 1.0000000000000000e+02
0.0000000000000000e+00 1.0000000000000000e+03
ITEM: ENTRIES c_myAngle
141.825 
ITEM: TIMESTEP
6100
ITEM: NUMBER OF ENTRIES
1
ITEM: BOX BOUNDS pp pp pp
0.0000000000000000e+00 1.0000000000000000e+02
0.0000000000000000e+00 1.0000000000000000e+02
0.0000000000000000e+00 1.0000000000000000e+03
ITEM: ENTRIES c_myAngle
143.789 
ITEM: TIMESTEP
6200
ITEM: NUMBER OF ENTRIES
1
ITEM: BOX BOUNDS pp pp pp
0.0000000000000000e+00 1.0000000000000000e+02
0.0000000000000000e+00 1.0000000000000000e+02
0.0000000000000000e+00 1.0000000000000000e+03
ITEM: ENTRIES c_myAngle
147.442 
ITEM: TIMESTEP
6300
ITEM: NUMBER OF ENTRIES
1
ITEM: BOX BOUNDS pp pp pp
0.0000000000000000e+00 1.0000000000000000e+02
0.0000000000000000e+00 1.0000000000000000e+02
0.0000000000000000e+00 1.0000000000000000e+03
ITEM: ENTRIES c_myAngle
152.92 
ITEM: TIMESTEP
6400
ITEM: NUMBER OF ENTRIES
1
ITEM: BOX BOUNDS pp pp pp
0.0000000000000000e+00 1.0000000000000000e+02
0.0000000000000000e+00 1.0000000000000000e+02
0.0000000000000000e+00 1.0000000000000000e+03
ITEM: ENTRIES c_myAngle
161.027 
ITEM: TIMESTEP
6500
ITEM: NUMBER OF ENTRIES
1
ITEM: BOX BOUNDS pp pp pp
0.0000000000000000e+00 1.0000000000000000e+02
0.0000000000000000e+00 1.0000000000000000e+02
0.0000000000000000e+00 1.0000000000000000e+03
ITEM: ENTRIES c_myAngle
171.078 
ITEM: TIMESTEP
6600
ITEM: NUMBER OF ENTRIES
1
ITEM: BOX BOUNDS pp pp pp
0.0000000000000000e+00 1.0000000000000000e+02
0.0000000000000000e+00 1.0000000000000000e+02
0.0000000000000000e+00 1.0000000000000000e+03
ITEM: ENTRIES c_myAngle
167.453 
ITEM: TIMESTEP
6700
ITEM: NUMBER OF ENTRIES
1
ITEM: BOX BOUNDS pp pp pp
0.0000000000000000e+00 1.0000000000000000e+02
0.0000000000000000e+00 1.0000000000000000e+02
0.0000000000000000e+00 1.0000000000000000e+03
ITEM: ENTRIES c_myAngle
148.004 
ITEM: TIMESTEP
6800
ITEM: NUMBER OF ENTRIES
1
ITEM: BOX BOUNDS pp pp pp
0.0000000000000000e+00 1.0000000000000000e+02
0.0000000000000000e+00 1.0000000000000000e+02
0.0000000000000000e+00 1.0000000000000000e+03
ITEM: ENTRIES c_myAngle
138.635 
ITEM: TIMESTEP
6900
ITEM: NUMBER OF ENTRIES
1
ITEM: BOX BOUNDS pp pp pp
0.0000000000000000e+00 1.0000000000000000e+02
0.0000000000000000e+00 1.0000000000000000e+02
0.0000000000000000e+00 1.0000000000000000e+03
ITEM: ENTRIES c_myAngle
172.679 
ITEM: TIMESTEP
7000
ITEM: NUMBER OF ENTRIES
1
ITEM: BOX BOUNDS pp pp pp
0.0000000000000000e+00 1.0000000000000000e+02
0.0000000000000000e+00 1.0000000000000000e+02
0.0000000000000000e+00 1.0000000000000000e+03
ITEM: ENTRIES c_myAngle
140.571 
ITEM: TIMESTEP
7100
ITEM: NUMBER OF ENTRIES
1
ITEM: BOX BOUNDS pp pp pp
0.0000000000000000e+00 1.0000000000000000e+02
0.0000000000000000e+00 1.0000000000000000e+02
0.0000000000000000e+00 1.0000000000000000e+03
ITEM: ENTRIES c_myAngle
146.006 
ITEM: TIMESTEP
7200
ITEM: NUMBER OF ENTRIES
1
ITEM: BOX BOUNDS pp pp pp
0.0000000000000000e+00 1.0000000000000000e+02
0.0000000000000000e+00 1.0000000000000000e+02
0.0000000000000000e+00 1.0000000000000000e+03
ITEM: ENTRIES c_myAngle
159.323 
ITEM: TIMESTEP
7300
ITEM: NUMBER OF ENTRIES
1
ITEM: BOX BOUNDS pp pp pp
0.0000000000000000e+00 1.0000000000000000e+02
0.0000000000000000e+00 1.0000000000000000e+02
0.0000000000000000e+00 1.0000000000000000e+03
ITEM: ENTRIES c_myAngle
170.108 
ITEM: TIMESTEP
7400
ITEM: NUMBER OF ENTRIES
1
ITEM: BOX BOUNDS pp pp pp
0.0000000000000000e+00 1.0000000000000000e+02
0.0000000000000000e+00 1.0000000000000000e+02
0.0000000000000000e+00 1.0000000000000000e+03
ITEM: ENTRIES c_myAngle
175.364 
ITEM: TIMESTEP
7500
ITEM: NUMBER OF ENTRIES
1
ITEM: BOX BOUNDS pp pp pp
0.0000000000000000e+00 1.0000000000000000e+02
0.0000000000000000e+00 1.0000000000000000e+02
0.0000000000000000e+00 1.0000000000000000e+03
ITEM: ENTRIES c_myAngle
171.979 
ITEM: TIMESTEP
7600
ITEM: NUMBER OF ENTRIES
1
ITEM: BOX BOUNDS pp pp pp
0.0000000000000000e+00 1.0000000000000000e+02
0.0000000000000000e+00 1.0000000000000000e+02
0.0000000000000000e+00 1.0000000000000000e+03
ITEM: ENTRIES c_myAngle
167.62 
ITEM: TIMESTEP
7700
ITEM: NUMBER OF ENTRIES
1
ITEM: BOX BOUNDS pp pp pp
0.0000000000000000e+00 1.0000000000000000e+02
0.0000000000000000e+00 1.0000000000000000e+02
0.0000000000000000e+00 1.0000000000000000e+03
ITEM: ENTRIES c_myAngle
165.164 
ITEM: TIMESTEP
7800
ITEM: NUMBER OF ENTRIES
1
ITEM: BOX BOUNDS pp pp pp
0.0000000000000000e+00 1.0000000000000000e+02
0.0000000000000000e+00 1.0000000000000000e+02
0.0000000000000000e+00 1.0000000000000000e+03
ITEM: ENTRIES c_myAngle
164.312 
ITEM: TIMESTEP
7900
ITEM: NUMBER OF ENTRIES
1
ITEM: BOX BOUNDS pp pp pp
0.0000000000000000e+00 1.0000000000000000e+02
0.0000000000000000e+00 1.0000000000000000e+02
0.0000000000000000e+00 1.0000000000000000e+03
ITEM: ENTRIES c_myAngle
164.248 
ITEM: TIMESTEP
8000
ITEM: NUMBER OF ENTRIES
1
ITEM: BOX BOUNDS pp pp pp
0.0000000000000000e+00 1.0000000000000000e+02
0.0000000000000000e+00 1.0000000000000000e+02
0.0000000000000000e+00 1.0000000000000000e+03
ITEM: ENTRIES c_myAngle
164.834 
ITEM: TIMESTEP
8100
ITEM: NUMBER OF ENTRIES
1
ITEM: BOX BOUNDS pp pp pp
0.0000000000000000e+00 1.0000000000000000e+02
0.0000000000000000e+00 1.0000000000000000e+02
0.0000000000000000e+00 1.0000000000000000e+03
ITEM: ENTRIES c_myAngle
165.554 
ITEM: TIMESTEP
8200
ITEM: NUMBER OF ENTRIES
1
ITEM: BOX BOUNDS pp pp pp
0.0000000000000000e+00 1.0000000000000000e+02
0.0000000000000000e+00 1.0000000000000000e+02
0.0000000000000000e+00 1.0000000000000000e+03
ITEM: ENTRIES c_myAngle
166.547 
ITEM: TIMESTEP
8300
ITEM: NUMBER OF ENTRIES
1
ITEM: BOX BOUNDS pp pp pp
0.0000000000000000e+00 1.0000000000000000e+02
0.0000000000000000e+00 1.0000000000000000e+02
0.0000000000000000e+00 1.0000000000000000e+03
ITEM: ENTRIES c_myAngle
167.959 
ITEM: TIMESTEP
8400
ITEM: NUMBER OF ENTRIES
1
ITEM: BOX BOUNDS pp pp pp
0.0000000000000000e+00 1.0000000000000000e+02
0.0000000000000000e+00 1.0000000000000000e+02
0.0000000000000000e+00 1.0000000000000000e+03
ITEM: ENTRIES c_myAngle
169.574 
ITEM: TIMESTEP
8500
ITEM: NUMBER OF ENTRIES
1
ITEM: BOX BOUNDS pp pp pp
0.0000000000000000e+00 1.0000000000000000e+02
0.0000000000000000e+00 1.0000000000000000e+02
0.0000000000000000e+00 1.0000000000000000e+03
ITEM: ENTRIES c_myAngle
171.397 
ITEM: TIMESTEP
8600
ITEM: NUMBER OF ENTRIES
1
ITEM: BOX BOUNDS pp pp pp
0.0000000000000000e+00 1.0000000000000000e+02
0.0000000000000000e+00 1.0000000000000000e+02
0.0000000000000000e+00 1.0000000000000000e+03
ITEM: ENTRIES c_myAngle
173.697 
ITEM: TIMESTEP
8700
ITEM: NUMBER OF ENTRIES
1
ITEM: BOX BOUNDS pp pp pp
0.0000000000000000e+00 1.0000000000000000e+02
0.0000000000000000e+00 1.0000000000000000e+02
0.0000000000000000e+00 1.0000000000000000e+03
ITEM: ENTRIES c_myAngle
176.688 
ITEM: TIMESTEP
8800
ITEM: NUMBER OF ENTRIES
1
ITEM: BOX BOUNDS pp pp pp
0.0000000000000000e+00 1.0000000000000000e+02
0.0000000000000000e+00 1.0000000000000000e+02
0.0000000000000000e+00 1.0000000000000000e+03
ITEM: ENTRIES c_myAngle
178.946 
ITEM: TIMESTEP
8900
ITEM: NUMBER OF ENTRIES
1
ITEM: BOX BOUNDS pp pp pp
0.0000000000000000e+00 1.0000000000000000e+02
0.0000000000000000e+00 1.0000000000000000e+02
0.0000000000000000e+00 1.0000000000000000e+03
ITEM: ENTRIES c_myAngle
177.472 
ITEM: TIMESTEP
9000
ITEM: NUMBER OF ENTRIES
1
ITEM: BOX BOUNDS pp pp pp
0.0000000000000000e+00 1.0000000000000000e+02
0.0000000000000000e+00 1.0000000000000000e+02
0.0000000000000000e+00 1.0000000000000000e+03
ITEM: ENTRIES c_myAngle
175.178 
ITEM: TIMESTEP
9100
ITEM: NUMBER OF ENTRIES
1
ITEM: BOX BOUNDS pp pp pp
0.0000000000000000e+00 1.0000000000000000e+02
0.0000000000000000e+00 1.0000000000000000e+02
0.0000000000000000e+00 1.0000000000000000e+03
ITEM: ENTRIES c_myAngle
173.026 
ITEM: TIMESTEP
9200
ITEM: NUMBER OF ENTRIES
1
ITEM: BOX BOUNDS pp pp pp
0.0000000000000000e+00 1.0000000000000000e+02
0.0000000000000000e+00 1.0000000000000000e+02
0.0000000000000000e+00 1.0000000000000000e+03
ITEM: ENTRIES c_myAngle
171.273 
ITEM: TIMESTEP
9300
ITEM: NUMBER OF ENTRIES
1
ITEM: BOX BOUNDS pp pp pp
0.0000000000000000e+00 1.0000000000000000e+02
0.0000000000000000e+00 1.0000000000000000e+02
0.0000000000000000e+00 1.0000000000000000e+03
ITEM: ENTRIES c_myAngle
169.96 
ITEM: TIMESTEP
9400
ITEM: NUMBER OF ENTRIES
1
ITEM: BOX BOUNDS pp pp pp
0.0000000000000000e+00 1.0000000000000000e+02
0.0000000000000000e+00 1.0000000000000000e+02
0.0000000000000000e+00 1.0000000000000000e+03
ITEM: ENTRIES c_myAngle
169.624 
ITEM: TIMESTEP
9500
ITEM: NUMBER OF ENTRIES
1
ITEM: BOX BOUNDS pp pp pp
0.0000000000000000e+00 1.0000000000000000e+02
0.0000000000000000e+00 1.0000000000000000e+02
0.0000000000000000e+00 1.0000000000000000e+03
ITEM: ENTRIES c_myAngle
169.45 
ITEM: TIMESTEP
9600
ITEM: NUMBER OF ENTRIES
1
ITEM: BOX BOUNDS pp pp pp
0.0000000000000000e+00 1.0000000000000000e+02
0.0000000000000000e+00 1.0000000000000000e+02
0.0000000000000000e+00 1.0000000000000000e+03
ITEM: ENTRIES c_myAngle
169.401 
ITEM: TIMESTEP
9700
ITEM: NUMBER OF ENTRIES
1
ITEM: BOX BOUNDS pp pp pp
0.0000000000000000e+00 1.0000000000000000e+02
0.0000000000000000e+00 1.0000000000000000e+02
0.0000000000000000e+00 1.0000000000000000e+03
ITEM: ENTRIES c_myAngle
169.341 
ITEM: TIMESTEP
9800
ITEM: NUMBER OF ENTRIES
1
ITEM: BOX BOUNDS pp pp pp
0.0000000000000000e+00 1.0000000000000000e+02
0.0000000000000000e+00 1.0000000000000000e+02
0.0000000000000000e+00 1.0000000000000000e+03
ITEM: ENTRIES c_myAngle
169.408 
ITEM: TIMESTEP
9900
ITEM: NUMBER OF ENTRIES
1
ITEM: BOX BOUNDS pp pp pp
0.0000000000000000e+00 1.0000000000000000e+02
0.0000000000000000e+00 1.0000000000000000e+02
0.0000000000000000e+00 1.0000000000000000e+03
ITEM: ENTRIES c_myAngle
169.901 
ITEM: TIMESTEP
10000
ITEM: NUMBER OF ENTRIES
1
ITEM: BOX BOUNDS pp pp pp
0.0000000000000000e+00 1.0000000000000000e+02
0.0000000000000000e+00 1.0000000000000000e+02
0.0000000000000000e+00 1.0000000000000000e+03
ITEM: ENTRIES c_myAngle
170.622 
ITEM: TIMESTEP
10100
ITEM: NUMBER OF ENTRIES
1
ITEM: BOX BOUNDS pp pp pp
0.0000000000000000e+00 1.0000000000000000e+02
0.0000000000000000e+00 1.0000000000000000e+02
0.0000000000000000e+00 1.0000000000000000e+03
ITEM: ENTRIES c_myAngle
171.509 
ITEM: TIMESTEP
10200
ITEM: NUMBER OF ENTRIES
1
ITEM: BOX BOUNDS pp pp pp
0.0000000000000000e+00 1.0000000000000000e+02
0.0000000000000000e+00 1.0000000000000000e+02
0.0000000000000000e+00 1.0000000000000000e+03
ITEM: ENTRIES c_myAngle
172.801 
ITEM: TIMESTEP
10300
ITEM: NUMBER OF ENTRIES
1
ITEM: BOX BOUNDS pp pp pp
0.0000000000000000e+00 1.0000000000000000e+02
0.0000000000000000e+00 1.0000000000000000e+02
0.0000000000000000e+00 1.0000000000000000e+03
ITEM: ENTRIES c_myAngle
173.924 
ITEM: TIMESTEP
10400
ITEM: NUMBER OF ENTRIES
1
ITEM: BOX BOUNDS pp pp pp
0.0000000000000000e+00 1.0000000000000000e+02
0.0000000000000000e+00 1.0000000000000000e+02
0.0000000000000000e+00 1.0000000000000000e+03
ITEM: ENTRIES c_myAngle
175.312 
ITEM: TIMESTEP
10500
ITEM: NUMBER OF ENTRIES
1
ITEM: BOX BOUNDS pp pp pp
0.0000000000000000e+00 1.0000000000000000e+02
0.0000000000000000e+00 1.0000000000000000e+02
0.0000000000000000e+00 1.0000000000000000e+03
ITEM: ENTRIES c_myAngle
176.779 
ITEM: TIMESTEP
10600
ITEM: NUMBER OF ENTRIES
1
ITEM: BOX BOUNDS pp pp pp
0.0000000000000000e+00 1.0000000000000000e+02
0.0000000000000000e+00 1.0000000000000000e+02
0.0000000000000000e+00 1.0000000000000000e+03
ITEM: ENTRIES c_myAngle
177.367 
ITEM: TIMESTEP
10700
ITEM: NUMBER OF ENTRIES
1
ITEM: BOX BOUNDS pp pp pp
0.0000000000000000e+00 1.0000000000000000e+02
0.0000000000000000e+00 1.0000000000000000e+02
0.0000000000000000e+00 1.0000000000000000e+03
ITEM: ENTRIES c_myAngle
175.717 
ITEM: TIMESTEP
10800
ITEM: NUMBER OF ENTRIES
1
ITEM: BOX BOUNDS pp pp pp
0.0000000000000000e+00 1.0000000000000000e+02
0.0000000000000000e+00 1.0000000000000000e+02
0.0000000000000000e+00 1.0000000000000000e+03
ITEM: ENTRIES c_myAngle
173.232 
ITEM: TIMESTEP
10900
ITEM: NUMBER OF ENTRIES
1
ITEM: BOX BOUNDS pp pp pp
0.0000000000000000e+00 1.0000000000000000e+02
0.0000000000000000e+00 1.0000000000000000e+02
0.0000000000000000e+00 1.0000000000000000e+03
ITEM: ENTRIES c_myAngle
170.443 
ITEM: TIMESTEP
11000
ITEM: NUMBER OF ENTRIES
1
ITEM: BOX BOUNDS pp pp pp
0.0000000000000000e+00 1.0000000000000000e+02
0.0000000000000000e+00 1.0000000000000000e+02
0.0000000000000000e+00 1.0000000000000000e+03
ITEM: ENTRIES c_myAngle
167.825 
ITEM: TIMESTEP
11100
ITEM: NUMBER OF ENTRIES
1
ITEM: BOX BOUNDS pp pp pp
0.0000000000000000e+00 1.0000000000000000e+02
0.0000000000000000e+00 1.0000000000000000e+02
0.0000000000000000e+00 1.0000000000000000e+03
ITEM: ENTRIES c_myAngle
165.461 
ITEM: TIMESTEP
11200
ITEM: NUMBER OF ENTRIES
1
ITEM: BOX BOUNDS pp pp pp
0.0000000000000000e+00 1.0000000000000000e+02
0.0000000000000000e+00 1.0000000000000000e+02
0.0000000000000000e+00 1.0000000000000000e+03
ITEM: ENTRIES c_myAngle
163.187 
ITEM: TIMESTEP
11300
ITEM: NUMBER OF ENTRIES
1
ITEM: BOX BOUNDS pp pp pp
0.0000000000000000e+00 1.0000000000000000e+02
0.0000000000000000e+00 1.0000000000000000e+02
0.0000000000000000e+00 1.0000000000000000e+03
ITEM: ENTRIES c_myAngle
161.311 
ITEM: TIMESTEP
11400
ITEM: NUMBER OF ENTRIES
1
ITEM: BOX BOUNDS pp pp pp
0.0000000000000000e+00 1.0000000000000000e+02
0.0000000000000000e+00 1.0000000000000000e+02
0.0000000000000000e+00 1.0000000000000000e+03
ITEM: ENTRIES c_myAngle
160.548 
ITEM: TIMESTEP
11500
ITEM: NUMBER OF ENTRIES
1
ITEM: BOX BOUNDS pp pp pp
0.0000000000000000e+00 1.0000000000000000e+02
0.0000000000000000e+00 1.0000000000000000e+02
0.0000000000000000e+00 1.0000000000000000e+03
ITEM: ENTRIES c_myAngle
160.022 
ITEM: TIMESTEP
11600
ITEM: NUMBER OF ENTRIES
1
ITEM: BOX BOUNDS pp pp pp
0.0000000000000000e+00 1.0000000000000000e+02
0.0000000000000000e+00 1.0000000000000000e+02
0.0000000000000000e+00 1.0000000000000000e+03
ITEM: ENTRIES c_myAngle
160.016 
ITEM: TIMESTEP
11700
ITEM: NUMBER OF ENTRIES
1
ITEM: BOX BOUNDS pp pp pp
0.0000000000000000e+00 1.0000000000000000e+02
0.0000000000000000e+00 1.0000000000000000e+02
0.0000000000000000e+00 1.0000000000000000e+03
ITEM: ENTRIES c_myAngle
161.345 
ITEM: TIMESTEP
11800
ITEM: NUMBER OF ENTRIES
1
ITEM: BOX BOUNDS pp pp pp
0.0000000000000000e+00 1.0000000000000000e+02
0.0000000000000000e+00 1.0000000000000000e+02
0.0000000000000000e+00 1.0000000000000000e+03
ITEM: ENTRIES c_myAngle
163.677 
ITEM: TIMESTEP
11900
ITEM: NUMBER OF ENTRIES
1
ITEM: BOX BOUNDS pp pp pp
0.0000000000000000e+00 1.0000000000000000e+02
0.0000000000000000e+00 1.0000000000000000e+02
0.0000000000000000e+00 1.0000000000000000e+03
ITEM: ENTRIES c_myAngle
165.913 
ITEM: TIMESTEP
12000
ITEM: NUMBER OF ENTRIES
1
ITEM: BOX BOUNDS pp pp pp
0.0000000000000000e+00 1.0000000000000000e+02
0.0000000000000000e+00 1.0000000000000000e+02
0.0000000000000000e+00 1.0000000000000000e+03
ITEM: ENTRIES c_myAngle
168.801 
ITEM: TIMESTEP
12100
ITEM: NUMBER OF ENTRIES
1
ITEM: BOX BOUNDS pp pp pp
0.0000000000000000e+00 1.0000000000000000e+02
0.0000000000000000e+00 1.0000000000000000e+02
0.0000000000000000e+00 1.0000000000000000e+03
ITEM: ENTRIES c_myAngle
172.079 
ITEM: TIMESTEP
12200
ITEM: NUMBER OF ENTRIES
1
ITEM: BOX BOUNDS pp pp pp
0.0000000000000000e+00 1.0000000000000000e+02
0.0000000000000000e+00 1.0000000000000000e+02
0.0000000000000000e+00 1.0000000000000000e+03
ITEM: ENTRIES c_myAngle
174.139 
ITEM: TIMESTEP
12300
ITEM: NUMBER OF ENTRIES
1
ITEM: BOX BOUNDS pp pp pp