ITEM: TIMESTEP
0
ITEM: NUMBER OF ATOMS
3
ITEM: BOX BOUNDS pp pp pp
0.0000000000000000e+00 1.0000000000000000e+02
0.0000000000000000e+00 1.0000000000000000e+02
0.0000000000000000e+00 1.0000000000000000e+03
ITEM: ATOMS id type x y z ix iy iz
1 1 0 0 0 0 0 0
2 2 0 0 1 0 0 0
3 1 0 0 2 0 0 0
ITEM: TIMESTEP
5
ITEM: NUMBER OF ATOMS
3
ITEM: BOX BOUNDS pp pp pp
0.0000000000000000e+00 1.0000000000000000e+02
0.0000000000000000e+00 1.0000000000000000e+02
0.0000000000000000e+00 1.0000000000000000e+03
ITEM: ATOMS id type x y z ix iy iz
1 1 0 0 0 0 0 0
2 2 0.000364201 0.000271121 1.00047 0 0 0
3 1 -0.000275287 -0.000241495 2.00104 0 0 0
ITEM: TIMESTEP
10
ITEM: NUMBER OF ATOMS
3
ITEM: BOX BOUNDS pp pp pp
0.0000000000000000e+00 1.0000000000000000e+02
0.0000000000000000e+00 1.0000000000000000e+02
0.0000000000000000e+00 1.0000000000000000e+03
ITEM: ATOMS id type x y z ix iy iz
1 1 0 0 0 0 0 0
2 2 -0.00053065 0.00125813 1.00114 0 0 0
3 1 -0.00145403 -0.0011975 2.00365 0 0 0
ITEM: TIMESTEP
15
ITEM: NUMBER OF ATOMS
3
ITEM: BOX BOUNDS pp pp pp
0.0000000000000000e+00 1.0000000000000000e+02
0.0000000000000000e+00 1.0000000000000000e+02
0.0000000000000000e+00 1.0000000000000000e+03
ITEM: ATOMS id type x y z ix iy iz
1 1 0 0 0 0 0 0
2 2 -0.00208011 0.00274625 1.00171 0 0 0
3 1 -0.00302556 -0.00250662 2.0075 0 0 0
ITEM: TIMESTEP
20
ITEM: NUMBER OF ATOMS
3
ITEM: BOX BOUNDS pp pp pp
0.0000000000000000e+00 1.0000000000000000e+02
0.0000000000000000e+00 1.0000000000000000e+02
0.0000000000000000e+00 1.0000000000000000e+03
ITEM: ATOMS id type x y z ix iy iz
1 1 0 0 0 0 0 0
2 2 -0.00224916 0.0035313 1.00207 0 0 0
3 1 -0.00473726 -0.00299728 2.01367 0 0 0
ITEM: TIMESTEP
25
ITEM: NUMBER OF ATOMS
3
ITEM: BOX BOUNDS pp pp pp
0.0000000000000000e+00 1.0000000000000000e+02
0.0000000000000000e+00 1.0000000000000000e+02
0.0000000000000000e+00 1.0000000000000000e+03
ITEM: ATOMS id type x y z ix iy iz
1 1 0 0 0 0 0 0
2 2 -0.001267 0.00453143 1.00271 0 0 0
3 1 -0.005795 -0.00352107 2.02111 0 0 0
ITEM: TIMESTEP
30
ITEM: NUMBER OF ATOMS
3
ITEM: BOX BOUNDS pp pp pp
0.0000000000000000e+00 1.0000000000000000e+02
0.0000000000000000e+00 1.0000000000000000e+02
0.0000000000000000e+00 1.0000000000000000e+03
ITEM: ATOMS id type x y z ix iy iz
1 1 0 0 0 0 0 0
2 2 -0.000189883 0.00560973 1.00376 0 0 0
3 1 -0.00625501 -0.00375238 2.02922 0 0 0
ITEM: TIMESTEP
35
ITEM: NUMBER OF ATOMS
3
ITEM: BOX BOUNDS pp pp pp
0.0000000000000000e+00 1.0000000000000000e+02
0.0000000000000000e+00 1.0000000000000000e+02
0.0000000000000000e+00 1.0000000000000000e+03
ITEM: ATOMS id type x y z ix iy iz
1 1 0 0 0 0 0 0
2 2 0.000188712 0.00574847 1.00374 0 0 0
3 1 -0.00716168 -0.00374197 2.03851 0 0 0
ITEM: TIMESTEP
40
ITEM: NUMBER OF ATOMS
3
ITEM: BOX BOUNDS pp pp pp
0.0000000000000000e+00 1.0000000000000000e+02
0.0000000000000000e+00 1.0000000000000000e+02
0.0000000000000000e+00 1.0000000000000000e+03
ITEM: ATOMS id type x y z ix iy iz
1 1 0 0 0 0 0 0
2 2 0.000274736 0.00498074 1.00254 0 0 0
3 1 -0.00815245 -0.00287359 2.04911 0 0 0
ITEM: TIMESTEP
45
ITEM: NUMBER OF ATOMS
3
ITEM: BOX BOUNDS pp pp pp
0.0000000000000000e+00 1.0000000000000000e+02
0.0000000000000000e+00 1.0000000000000000e+02
0.0000000000000000e+00 1.0000000000000000e+03
ITEM: ATOMS id type x y z ix iy iz
1 1 0 0 0 0 0 0
2 2 1.2999e-05 0.00365653 1.00123 0 0 0
3 1 -0.00812778 -0.00103668 2.06077 0 0 0
ITEM: TIMESTEP
50
ITEM: NUMBER OF ATOMS
3
ITEM: BOX BOUNDS pp pp pp
0.0000000000000000e+00 1.0000000000000000e+02
0.0000000000000000e+00 1.0000000000000000e+02
0.0000000000000000e+00 1.0000000000000000e+03
ITEM: ATOMS id type x y z ix iy iz
1 1 0 0 0 0 0 0
2 2 -0.00121854 0.00233725 1.00027 0 0 0
3 1 -0.00755141 0.000879326 2.07268 0 0 0
ITEM: TIMESTEP
55
ITEM: NUMBER OF ATOMS
3
ITEM: BOX BOUNDS pp pp pp
0.0000000000000000e+00 1.0000000000000000e+02
0.0000000000000000e+00 1.0000000000000000e+02
0.0000000000000000e+00 1.0000000000000000e+03
ITEM: ATOMS id type x y z ix iy iz
1 1 0 0 0 0 0 0
2 2 -0.0027034 0.000169166 1.00008 0 0 0
3 1 -0.00645467 0.00280479 2.08491 0 0 0
ITEM: TIMESTEP
60
ITEM: NUMBER OF ATOMS
3
ITEM: BOX BOUNDS pp pp pp
0.0000000000000000e+00 1.0000000000000000e+02
0.0000000000000000e+00 1.0000000000000000e+02
0.0000000000000000e+00 1.0000000000000000e+03
ITEM: ATOMS id type x y z ix iy iz
1 1 0 0 0 0 0 0
2 2 -0.00506707 -0.00266661 1.00056 0 0 0
3 1 -0.00447992 0.00571458 2.09815 0 0 0
ITEM: TIMESTEP
65
ITEM: NUMBER OF ATOMS
3
ITEM: BOX BOUNDS pp pp pp
0.0000000000000000e+00 1.0000000000000000e+02
0.0000000000000000e+00 1.0000000000000000e+02
0.0000000000000000e+00 1.0000000000000000e+03
ITEM: ATOMS id type x y z ix iy iz
1 1 0 0 0 0 0 0
2 2 -0.00652326 -0.00492916 1.00181 0 0 0
3 1 -0.00224846 0.00774881 2.11243 0 0 0
ITEM: TIMESTEP
70
ITEM: NUMBER OF ATOMS
3
ITEM: BOX BOUNDS pp pp pp
0.0000000000000000e+00 1.0000000000000000e+02
0.0000000000000000e+00 1.0000000000000000e+02
0.0000000000000000e+00 1.0000000000000000e+03
ITEM: ATOMS id type x y z ix iy iz
1 1 0 0 0 0 0 0
2 2 -0.0075846 -0.00662925 1.0032 0 0 0
3 1 0.000437002 0.00857122 2.12771 0 0 0
ITEM: TIMESTEP
75
ITEM: NUMBER OF ATOMS
3
ITEM: BOX BOUNDS pp pp pp
0.0000000000000000e+00 1.0000000000000000e+02
0.0000000000000000e+00 1.0000000000000000e+02
0.0000000000000000e+00 1.0000000000000000e+03
ITEM: ATOMS id type x y z ix iy iz
1 1 0 0 0 0 0 0
2 2 -0.00749654 -0.00792758 1.00422 0 0 0
3 1 0.00285733 0.0086884 2.14344 0 0 0
ITEM: TIMESTEP
80
ITEM: NUMBER OF ATOMS
3
ITEM: BOX BOUNDS pp pp pp
0.0000000000000000e+00 1.0000000000000000e+02
0.0000000000000000e+00 1.0000000000000000e+02
0.0000000000000000e+00 1.0000000000000000e+03
ITEM: ATOMS id type x y z ix iy iz
1 1 0 0 0 0 0 0
2 2 -0.00553342 -0.00713083 1.00537 0 0 0
3 1 0.00399769 0.00781544 2.1595 0 0 0
ITEM: TIMESTEP
85
ITEM: NUMBER OF ATOMS
3
ITEM: BOX BOUNDS pp pp pp
0.0000000000000000e+00 1.0000000000000000e+02
0.0000000000000000e+00 1.0000000000000000e+02
0.0000000000000000e+00 1.0000000000000000e+03
ITEM: ATOMS id type x y z ix iy iz
1 1 0 0 0 0 0 0
2 2 -0.00267878 -0.00615607 1.00769 0 0 0
3 1 0.00525714 0.00603694 2.17652 0 0 0
ITEM: TIMESTEP
90
ITEM: NUMBER OF ATOMS
3
ITEM: BOX BOUNDS pp pp pp
0.0000000000000000e+00 1.0000000000000000e+02
0.0000000000000000e+00 1.0000000000000000e+02
0.0000000000000000e+00 1.0000000000000000e+03
ITEM: ATOMS id type x y z ix iy iz
1 1 0 0 0 0 0 0
2 2 0.000949418 -0.00539742 1.01139 0 0 0
3 1 0.00759179 0.00376102 2.19407 0 0 0
ITEM: TIMESTEP
95
ITEM: NUMBER OF ATOMS
3
ITEM: BOX BOUNDS pp pp pp
0.0000000000000000e+00 1.0000000000000000e+02
0.0000000000000000e+00 1.0000000000000000e+02
0.0000000000000000e+00 1.0000000000000000e+03
ITEM: ATOMS id type x y z ix iy iz
1 1 0 0 0 0 0 0
2 2 0.0044189 -0.00441373 1.01632 0 0 0
3 1 0.00978531 0.000842026 2.21219 0 0 0
ITEM: TIMESTEP
100
ITEM: NUMBER OF ATOMS
3
ITEM: BOX BOUNDS pp pp pp
0.0000000000000000e+00 1.0000000000000000e+02
0.0000000000000000e+00 1.0000000000000000e+02
0.0000000000000000e+00 1.0000000000000000e+03
ITEM: ATOMS id type x y z ix iy iz
1 1 0 0 0 0 0 0
2 2 0.00851589 -0.00341904 1.02223 0 0 0
3 1 0.0115701 -0.00224482 2.23065 0 0 0
ITEM: TIMESTEP
105
ITEM: NUMBER OF ATOMS
3
ITEM: BOX BOUNDS pp pp pp
0.0000000000000000e+00 1.0000000000000000e+02
0.0000000000000000e+00 1.0000000000000000e+02
0.0000000000000000e+00 1.0000000000000000e+03
ITEM: ATOMS id type x y z ix iy iz
1 1 0 0 0 0 0 0
2 2 0.0124087 -0.00273975 1.02981 0 0 0
3 1 0.0138365 -0.00469986 2.24965 0 0 0
ITEM: TIMESTEP
110
ITEM: NUMBER OF ATOMS
3
ITEM: BOX BOUNDS pp pp pp
0.0000000000000000e+00 1.0000000000000000e+02
0.0000000000000000e+00 1.0000000000000000e+02
0.0000000000000000e+00 1.0000000000000000e+03
ITEM: ATOMS id type x y z ix iy iz
1 1 0 0 0 0 0 0
2 2 0.016126 -0.00356986 1.03946 0 0 0
3 1 0.0165057 -0.00678035 2.26891 0 0 0
ITEM: TIMESTEP
115
ITEM: NUMBER OF ATOMS
3
ITEM: BOX BOUNDS pp pp pp
0.0000000000000000e+00 1.0000000000000000e+02
0.0000000000000000e+00 1.0000000000000000e+02
0.0000000000000000e+00 1.0000000000000000e+03
ITEM: ATOMS id type x y z ix iy iz
1 1 0 0 0 0 0 0
2 2 0.019182 -0.0051222 1.04966 0 0 0
3 1 0.0196296 -0.00894211 2.28856 0 0 0
ITEM: TIMESTEP
120
ITEM: NUMBER OF ATOMS
3
ITEM: BOX BOUNDS pp pp pp
0.0000000000000000e+00 1.0000000000000000e+02
0.0000000000000000e+00 1.0000000000000000e+02
0.0000000000000000e+00 1.0000000000000000e+03
ITEM: ATOMS id type x y z ix iy iz
1 1 0 0 0 0 0 0
2 2 0.0215444 -0.00593302 1.0613 0 0 0
3 1 0.0238596 -0.0109188 2.30884 0 0 0
ITEM: TIMESTEP
125
ITEM: NUMBER OF ATOMS
3
ITEM: BOX BOUNDS pp pp pp
0.0000000000000000e+00 1.0000000000000000e+02
0.0000000000000000e+00 1.0000000000000000e+02
0.0000000000000000e+00 1.0000000000000000e+03
ITEM: ATOMS id type x y z ix iy iz
1 1 0 0 0 0 0 0
2 2 0.0219964 -0.00595466 1.07469 0 0 0
3 1 0.0286411 -0.01211 2.32987 0 0 0
ITEM: TIMESTEP
130
ITEM: NUMBER OF ATOMS
3
ITEM: BOX BOUNDS pp pp pp
0.0000000000000000e+00 1.0000000000000000e+02
0.0000000000000000e+00 1.0000000000000000e+02
0.0000000000000000e+00 1.0000000000000000e+03
ITEM: ATOMS id type x y z ix iy iz
1 1 0 0 0 0 0 0
2 2 0.0219939 -0.00524085 1.08982 0 0 0
3 1 0.033435 -0.0135217 2.3507 0 0 0
ITEM: TIMESTEP
135
ITEM: NUMBER OF ATOMS
3
ITEM: BOX BOUNDS pp pp pp
0.0000000000000000e+00 1.0000000000000000e+02
0.0000000000000000e+00 1.0000000000000000e+02
0.0000000000000000e+00 1.0000000000000000e+03
ITEM: ATOMS id type x y z ix iy iz
1 1 0 0 0 0 0 0
2 2 0.0218271 -0.00412595 1.10547 0 0 0
3 1 0.0378022 -0.0140446 2.37313 0 0 0
ITEM: TIMESTEP
140
ITEM: NUMBER OF ATOMS
3
ITEM: BOX BOUNDS pp pp pp
0.0000000000000000e+00 1.0000000000000000e+02
0.0000000000000000e+00 1.0000000000000000e+02
0.0000000000000000e+00 1.0000000000000000e+03
ITEM: ATOMS id type x y z ix iy iz
1 1 0 0 0 0 0 0
2 2 0.022083 -0.00377507 1.12113 0 0 0
3 1 0.042922 -0.014286 2.39603 0 0 0
ITEM: TIMESTEP
145
ITEM: NUMBER OF ATOMS
3
ITEM: BOX BOUNDS pp pp pp
0.0000000000000000e+00 1.0000000000000000e+02
0.0000000000000000e+00 1.0000000000000000e+02
0.0000000000000000e+00 1.0000000000000000e+03
ITEM: ATOMS id type x y z ix iy iz
1 1 0 0 0 0 0 0
2 2 0.0229621 -0.00397517 1.1367 0 0 0
3 1 0.0483121 -0.0143219 2.41902 0 0 0
ITEM: TIMESTEP
150
ITEM: NUMBER OF ATOMS
3
ITEM: BOX BOUNDS pp pp pp
0.0000000000000000e+00 1.0000000000000000e+02
0.0000000000000000e+00 1.0000000000000000e+02
0.0000000000000000e+00 1.0000000000000000e+03
ITEM: ATOMS id type x y z ix iy iz
1 1 0 0 0 0 0 0
2 2 0.02439 -0.00368983 1.15201 0 0 0
3 1 0.0545764 -0.0145724 2.44192 0 0 0
ITEM: TIMESTEP
155
ITEM: NUMBER OF ATOMS
3
ITEM: BOX BOUNDS pp pp pp
0.0000000000000000e+00 1.0000000000000000e+02
0.0000000000000000e+00 1.0000000000000000e+02
0.0000000000000000e+00 1.0000000000000000e+03
ITEM: ATOMS id type x y z ix iy iz
1 1 0 0 0 0 0 0
2 2 0.0257033 -0.00287617 1.16789 0 0 0
3 1 0.0610336 -0.0145363 2.46539 0 0 0
ITEM: TIMESTEP
160
ITEM: NUMBER OF ATOMS
3
ITEM: BOX BOUNDS pp pp pp
0.0000000000000000e+00 1.0000000000000000e+02
0.0000000000000000e+00 1.0000000000000000e+02
0.0000000000000000e+00 1.0000000000000000e+03
ITEM: ATOMS id type x y z ix iy iz
1 1 0 0 0 0 0 0
2 2 0.0259607 -0.00208309 1.18522 0 0 0
3 1 0.067564 -0.0144944 2.48935 0 0 0
ITEM: TIMESTEP
165
ITEM: NUMBER OF ATOMS
3
ITEM: BOX BOUNDS pp pp pp
0.0000000000000000e+00 1.0000000000000000e+02
0.0000000000000000e+00 1.0000000000000000e+02
0.0000000000000000e+00 1.0000000000000000e+03
ITEM: ATOMS id type x y z ix iy iz
1 1 0 0 0 0 0 0
2 2 0.0265879 -0.00094259 1.20382 0 0 0
3 1 0.0732975 -0.0144048 2.51358 0 0 0
ITEM: TIMESTEP
170
ITEM: NUMBER OF ATOMS
3
ITEM: BOX BOUNDS pp pp pp
0.0000000000000000e+00 1.0000000000000000e+02
0.0000000000000000e+00 1.0000000000000000e+02
0.0000000000000000e+00 1.0000000000000000e+03
ITEM: ATOMS id type x y z ix iy iz
1 1 0 0 0 0 0 0
2 2 0.0290955 -0.00036801 1.22192 0 0 0
3 1 0.0787355 -0.0149202 2.53833 0 0 0
ITEM: TIMESTEP
175
ITEM: NUMBER OF ATOMS
3
ITEM: BOX BOUNDS pp pp pp
0.0000000000000000e+00 1.0000000000000000e+02
0.0000000000000000e+00 1.0000000000000000e+02
0.0000000000000000e+00 1.0000000000000000e+03
ITEM: ATOMS id type x y z ix iy iz
1 1 0 0 0 0 0 0
2 2 0.032574 -0.00083559 1.23972 0 0 0
3 1 0.0844379 -0.0149215 2.56357 0 0 0
ITEM: TIMESTEP
180
ITEM: NUMBER OF ATOMS
3
ITEM: BOX BOUNDS pp pp pp
0.0000000000000000e+00 1.0000000000000000e+02
0.0000000000000000e+00 1.0000000000000000e+02
0.0000000000000000e+00 1.0000000000000000e+03
ITEM: ATOMS id type x y z ix iy iz
1 1 0 0 0 0 0 0
2 2 0.0375291 -0.00201112 1.25691 0 0 0
3 1 0.0888384 -0.0152682 2.58824 0 0 0
ITEM: TIMESTEP
185
ITEM: NUMBER OF ATOMS
3
ITEM: BOX BOUNDS pp pp pp
0.0000000000000000e+00 1.0000000000000000e+02
0.0000000000000000e+00 1.0000000000000000e+02
0.0000000000000000e+00 1.0000000000000000e+03
ITEM: ATOMS id type x y z ix iy iz
1 1 0 0 0 0 0 0
2 2 0.043647 -0.00449372 1.27446 0 0 0
3 1 0.092703 -0.0157963 2.61297 0 0 0
ITEM: TIMESTEP
190
ITEM: NUMBER OF ATOMS
3
ITEM: BOX BOUNDS pp pp pp
0.0000000000000000e+00 1.0000000000000000e+02
0.0000000000000000e+00 1.0000000000000000e+02
0.0000000000000000e+00 1.0000000000000000e+03
ITEM: ATOMS id type x y z ix iy iz
1 1 0 0 0 0 0 0
2 2 0.0487214 -0.00814371 1.29145 0 0 0
3 1 0.0963915 -0.015755 2.63768 0 0 0
ITEM: TIMESTEP
195
ITEM: NUMBER OF ATOMS
3
ITEM: BOX BOUNDS pp pp pp
0.0000000000000000e+00 1.0000000000000000e+02
0.0000000000000000e+00 1.0000000000000000e+02
0.0000000000000000e+00 1.0000000000000000e+03
ITEM: ATOMS id type x y z ix iy iz
1 1 0 0 0 0 0 0
2 2 0.0530154 -0.0115791 1.30795 0 0 0
3 1 0.100055 -0.0159194 2.6622 0 0 0
ITEM: TIMESTEP
200
ITEM: NUMBER OF ATOMS
3
ITEM: BOX BOUNDS pp pp pp
0.0000000000000000e+00 1.0000000000000000e+02
0.0000000000000000e+00 1.0000000000000000e+02
0.0000000000000000e+00 1.0000000000000000e+03
ITEM: ATOMS id type x y z ix iy iz
1 1 0 0 0 0 0 0
2 2 0.0577012 -0.0141033 1.32414 0 0 0
3 1 0.102654 -0.0157905 2.68612 0 0 0
ITEM: TIMESTEP
205
ITEM: NUMBER OF ATOMS
3
ITEM: BOX BOUNDS pp pp pp
0.0000000000000000e+00 1.0000000000000000e+02
0.0000000000000000e+00 1.0000000000000000e+02
0.0000000000000000e+00 1.0000000000000000e+03
ITEM: ATOMS id type x y z ix iy iz
1 1 0 0 0 0 0 0
2 2 0.0626842 -0.0158496 1.33967 0 0 0
3 1 0.104466 -0.015825 2.7098 0 0 0
ITEM: TIMESTEP
210
ITEM: NUMBER OF ATOMS
3
ITEM: BOX BOUNDS pp pp pp
0.0000000000000000e+00 1.0000000000000000e+02
0.0000000000000000e+00 1.0000000000000000e+02
0.0000000000000000e+00 1.0000000000000000e+03
ITEM: ATOMS id type x y z ix iy iz
1 1 0 0 0 0 0 0
2 2 0.0674869 -0.0177006 1.35486 0 0 0
3 1 0.106189 -0.0159464 2.73368 0 0 0
ITEM: TIMESTEP
215
ITEM: NUMBER OF ATOMS
3
ITEM: BOX BOUNDS pp pp pp
0.0000000000000000e+00 1.0000000000000000e+02
0.0000000000000000e+00 1.0000000000000000e+02
0.0000000000000000e+00 1.0000000000000000e+03
ITEM: ATOMS id type x y z ix iy iz
1 1 0 0 0 0 0 0
2 2 0.0711738 -0.0188915 1.37029 0 0 0
3 1 0.10794 -0.0162542 2.75651 0 0 0
ITEM: TIMESTEP
220
ITEM: NUMBER OF ATOMS
3
ITEM: BOX BOUNDS pp pp pp
0.0000000000000000e+00 1.0000000000000000e+02
0.0000000000000000e+00 1.0000000000000000e+02
0.0000000000000000e+00 1.0000000000000000e+03
ITEM: ATOMS id type x y z ix iy iz
1 1 0 0 0 0 0 0
2 2 0.0739436 -0.0187783 1.38611 0 0 0
3 1 0.111042 -0.0163241 2.77948 0 0 0
ITEM: TIMESTEP
225
ITEM: NUMBER OF ATOMS
3
ITEM: BOX BOUNDS pp pp pp
0.0000000000000000e+00 1.0000000000000000e+02
0.0000000000000000e+00 1.0000000000000000e+02
0.0000000000000000e+00 1.0000000000000000e+03
ITEM: ATOMS id type x y z ix iy iz
1 1 0 0 0 0 0 0
2 2 0.0749345 -0.0183563 1.40197 0 0 0
3 1 0.114795 -0.0157965 2.80152 0 0 0
ITEM: TIMESTEP
230
ITEM: NUMBER OF ATOMS
3
ITEM: BOX BOUNDS pp pp pp
0.0000000000000000e+00 1.0000000000000000e+02
0.0000000000000000e+00 1.0000000000000000e+02
0.0000000000000000e+00 1.0000000000000000e+03
ITEM: ATOMS id type x y z ix iy iz
1 1 0 0 0 0 0 0
2 2 0.0748727 -0.0174535 1.41821 0 0 0
3 1 0.118511 -0.0154103 2.82271 0 0 0
ITEM: TIMESTEP
235
ITEM: NUMBER OF ATOMS
3
ITEM: BOX BOUNDS pp pp pp
0.0000000000000000e+00 1.0000000000000000e+02
0.0000000000000000e+00 1.0000000000000000e+02
0.0000000000000000e+00 1.0000000000000000e+03
ITEM: ATOMS id type x y z ix iy iz
1 1 0 0 0 0 0 0
2 2 0.0740888 -0.0153633 1.43411 0 0 0
3 1 0.121767 -0.0148686 2.84417 0 0 0
ITEM: TIMESTEP
240
ITEM: NUMBER OF ATOMS
3
ITEM: BOX BOUNDS pp pp pp
0.0000000000000000e+00 1.0000000000000000e+02
0.0000000000000000e+00 1.0000000000000000e+02
0.0000000000000000e+00 1.0000000000000000e+03
ITEM: ATOMS id type x y z ix iy iz
1 1 0 0 0 0 0 0
2 2 0.0721422 -0.0124848 1.44921 0 0 0
3 1 0.124963 -0.0135336 2.86619 0 0 0
ITEM: TIMESTEP
245
ITEM: NUMBER OF ATOMS
3
ITEM: BOX BOUNDS pp pp pp
0.0000000000000000e+00 1.0000000000000000e+02
0.0000000000000000e+00 1.0000000000000000e+02
0.0000000000000000e+00 1.0000000000000000e+03
ITEM: ATOMS id type x y z ix iy iz
1 1 0 0 0 0 0 0
2 2 0.0687583 -0.00919167 1.46414 0 0 0
3 1 0.127705 -0.011873 2.88751 0 0 0
ITEM: TIMESTEP
250
ITEM: NUMBER OF ATOMS
3
ITEM: BOX BOUNDS pp pp pp
0.0000000000000000e+00 1.0000000000000000e+02
0.0000000000000000e+00 1.0000000000000000e+02
0.0000000000000000e+00 1.0000000000000000e+03
ITEM: ATOMS id type x y z ix iy iz
1 1 0 0 0 0 0 0
2 2 0.0652912 -0.00601411 1.47858 0 0 0
3 1 0.130324 -0.00988272 2.90857 0 0 0
ITEM: TIMESTEP
255
ITEM: NUMBER OF ATOMS
3
ITEM: BOX BOUNDS pp pp pp
0.0000000000000000e+00 1.0000000000000000e+02
0.0000000000000000e+00 1.0000000000000000e+02
0.0000000000000000e+00 1.0000000000000000e+03
ITEM: ATOMS id type x y z ix iy iz
1 1 0 0 0 0 0 0
2 2 0.0618534 -0.00371465 1.49302 0 0 0
3 1 0.132103 -0.00792618 2.92933 0 0 0
ITEM: TIMESTEP
260
ITEM: NUMBER OF ATOMS
3
ITEM: BOX BOUNDS pp pp pp
0.0000000000000000e+00 1.0000000000000000e+02
0.0000000000000000e+00 1.0000000000000000e+02
0.0000000000000000e+00 1.0000000000000000e+03
ITEM: ATOMS id type x y z ix iy iz
1 1 0 0 0 0 0 0
2 2 0.0594085 99.9981 1.50651 0 -1 0
3 1 0.133715 99.9935 2.94963 0 -1 0
ITEM: TIMESTEP
265
ITEM: NUMBER OF ATOMS
3
ITEM: BOX BOUNDS pp pp pp
0.0000000000000000e+00 1.0000000000000000e+02
0.0000000000000000e+00 1.0000000000000000e+02
0.0000000000000000e+00 1.0000000000000000e+03
ITEM: ATOMS id type x y z ix iy iz
1 1 0 0 0 0 0 0
2 2 0.0569558 100 1.51949 0 -1 0
3 1 0.135439 99.9946 2.96976 0 -1 0
ITEM: TIMESTEP
270
ITEM: NUMBER OF ATOMS
3
ITEM: BOX BOUNDS pp pp pp
0.0000000000000000e+00 1.0000000000000000e+02
0.0000000000000000e+00 1.0000000000000000e+02
0.0000000000000000e+00 1.0000000000000000e+03
ITEM: ATOMS id type x y z ix iy iz
1 1 0 0 0 0 0 0
2 2 0.0545935 100.002 1.53065 0 -1 0
3 1 0.136737 99.9956 2.99 0 -1 0
ITEM: TIMESTEP
275
ITEM: NUMBER OF ATOMS
3
ITEM: BOX BOUNDS pp pp pp
0.0000000000000000e+00 1.0000000000000000e+02
0.0000000000000000e+00 1.0000000000000000e+02
0.0000000000000000e+00 1.0000000000000000e+03
ITEM: ATOMS id type x y z ix iy iz
1 1 0 0 0 0 0 0
2 2 0.0527755 100.002 1.54079 0 -1 0
3 1 0.138191 99.9965 3.01003 0 -1 0
ITEM: TIMESTEP
280
ITEM: NUMBER OF ATOMS
3
ITEM: BOX BOUNDS pp pp pp
0.0000000000000000e+00 1.0000000000000000e+02
0.0000000000000000e+00 1.0000000000000000e+02
0.0000000000000000e+00 1.0000000000000000e+03
ITEM: ATOMS id type x y z ix iy iz
1 1 0 0 0 0 0 0
2 2 0.0526097 100.002 1.55021 0 -1 0
3 1 0.140184 99.9979 3.03025 0 -1 0
ITEM: TIMESTEP
285
ITEM: NUMBER OF ATOMS
3
ITEM: BOX BOUNDS pp pp pp
0.0000000000000000e+00 1.0000000000000000e+02
0.0000000000000000e+00 1.0000000000000000e+02
0.0000000000000000e+00 1.0000000000000000e+03
ITEM: ATOMS id type x y z ix iy iz
1 1 0 0 0 0 0 0
2 2 0.0535316 100.001 1.55976 0 -1 0
3 1 0.141513 99.9986 3.0492 0 -1 0
ITEM: TIMESTEP
290
ITEM: NUMBER OF ATOMS
3
ITEM: BOX BOUNDS pp pp pp
0.0000000000000000e+00 1.0000000000000000e+02
0.0000000000000000e+00 1.0000000000000000e+02
0.0000000000000000e+00 1.0000000000000000e+03
ITEM: ATOMS id type x y z ix iy iz
1 1 0 0 0 0 0 0
2 2 0.0562088 100 1.5694 0 -1 0
3 1 0.141484 99.9989 3.06789 0 -1 0
ITEM: TIMESTEP
295
ITEM: NUMBER OF ATOMS
3
ITEM: BOX BOUNDS pp pp pp
0.0000000000000000e+00 1.0000000000000000e+02
0.0000000000000000e+00 1.0000000000000000e+02
0.0000000000000000e+00 1.0000000000000000e+03
ITEM: ATOMS id type x y z ix iy iz
1 1 0 0 0 0 0 0
2 2 0.0589056 99.9984 1.57845 0 -1 0
3 1 0.140868 100 3.08648 0 -1 0
ITEM: TIMESTEP
300
ITEM: NUMBER OF ATOMS
3
ITEM: BOX BOUNDS pp pp pp
0.0000000000000000e+00 1.0000000000000000e+02
0.0000000000000000e+00 1.0000000000000000e+02
0.0000000000000000e+00 1.0000000000000000e+03
ITEM: ATOMS id type x y z ix iy iz
1 1 0 0 0 0 0 0
2 2 0.0627566 99.9973 1.58772 0 -1 0
3 1 0.139334 100.002 3.10471 0 -1 0
ITEM: TIMESTEP
305
ITEM: NUMBER OF ATOMS
3
ITEM: BOX BOUNDS pp pp pp
0.0000000000000000e+00 1.0000000000000000e+02
0.0000000000000000e+00 1.0000000000000000e+02
0.0000000000000000e+00 1.0000000000000000e+03
ITEM: ATOMS id type x y z ix iy iz
1 1 0 0 0 0 0 0
2 2 0.0680696 99.997 1.59705 0 -1 0
3 1 0.138334 100.004 3.12242 0 -1 0
ITEM: TIMESTEP
310
ITEM: NUMBER OF ATOMS
3
ITEM: BOX BOUNDS pp pp pp
0.0000000000000000e+00 1.0000000000000000e+02
0.0000000000000000e+00 1.0000000000000000e+02
0.0000000000000000e+00 1.0000000000000000e+03
ITEM: ATOMS id type x y z ix iy iz
1 1 0 0 0 0 0 0
2 2 0.0740442 99.9968 1.60595 0 -1 0
3 1 0.138221 100.006 3.13966 0 -1 0
ITEM: TIMESTEP
315
ITEM: NUMBER OF ATOMS
3
ITEM: BOX BOUNDS pp pp pp
0.0000000000000000e+00 1.0000000000000000e+02
0.0000000000000000e+00 1.0000000000000000e+02
0.0000000000000000e+00 1.0000000000000000e+03
ITEM: ATOMS id type x y z ix iy iz
1 1 0 0 0 0 0 0
2 2 0.0802163 99.9971 1.61365 0 -1 0
3 1 0.137581 100.008 3.15505 0 -1 0
ITEM: TIMESTEP
320
ITEM: NUMBER OF ATOMS
3
ITEM: BOX BOUNDS pp pp pp
0.0000000000000000e+00 1.0000000000000000e+02
0.0000000000000000e+00 1.0000000000000000e+02
0.0000000000000000e+00 1.0000000000000000e+03
ITEM: ATOMS id type x y z ix iy iz
1 1 0 0 0 0 0 0
2 2 0.0865081 99.9989 1.6201 0 -1 0
3 1 0.137263 100.009 3.16983 0 -1 0
ITEM: TIMESTEP
325
ITEM: NUMBER OF ATOMS
3
ITEM: BOX BOUNDS pp pp pp
0.0000000000000000e+00 1.0000000000000000e+02
0.0000000000000000e+00 1.0000000000000000e+02
0.0000000000000000e+00 1.0000000000000000e+03
ITEM: ATOMS id type x y z ix iy iz
1 1 0 0 0 0 0 0
2 2 0.0920561 100 1.6254 0 -1 0
3 1 0.137403 100.009 3.18355 0 -1 0
ITEM: TIMESTEP
330
ITEM: NUMBER OF ATOMS
3
ITEM: BOX BOUNDS pp pp pp
0.0000000000000000e+00 1.0000000000000000e+02
0.0000000000000000e+00 1.0000000000000000e+02
0.0000000000000000e+00 1.0000000000000000e+03
ITEM: ATOMS id type x y z ix iy iz
1 1 0 0 0 0 0 0
2 2 0.0970973 100.002 1.63084 0 -1 0
3 1 0.137142 100.01 3.19613 0 -1 0
ITEM: TIMESTEP
335
ITEM: NUMBER OF ATOMS
3
ITEM: BOX BOUNDS pp pp pp
0.0000000000000000e+00 1.0000000000000000e+02
0.0000000000000000e+00 1.0000000000000000e+02
0.0000000000000000e+00 1.0000000000000000e+03
ITEM: ATOMS id type x y z ix iy iz
1 1 0 0 0 0 0 0
2 2 0.10107 100.002 1.63499 0 -1 0
3 1 0.137298 100.011 3.20851 0 -1 0
ITEM: TIMESTEP
340
ITEM: NUMBER OF ATOMS
3
ITEM: BOX BOUNDS pp pp pp
0.0000000000000000e+00 1.0000000000000000e+02
0.0000000000000000e+00 1.0000000000000000e+02
0.0000000000000000e+00 1.0000000000000000e+03
ITEM: ATOMS id type x y z ix iy iz
1 1 0 0 0 0 0 0
2 2 0.103167 100.002 1.6391 0 -1 0
3 1 0.138214 100.011 3.21968 0 -1 0
ITEM: TIMESTEP
345
ITEM: NUMBER OF ATOMS
3
ITEM: BOX BOUNDS pp pp pp
0.0000000000000000e+00 1.0000000000000000e+02
0.0000000000000000e+00 1.0000000000000000e+02
0.0000000000000000e+00 1.0000000000000000e+03
ITEM: ATOMS id type x y z ix iy iz
1 1 0 0 0 0 0 0
2 2 0.103331 100.002 1.64273 0 -1 0
3 1 0.13956 100.012 3.22944 0 -1 0
ITEM: TIMESTEP
350
ITEM: NUMBER OF ATOMS
3
ITEM: BOX BOUNDS pp pp pp
0.0000000000000000e+00 1.0000000000000000e+02
0.0000000000000000e+00 1.0000000000000000e+02
0.0000000000000000e+00 1.0000000000000000e+03
ITEM: ATOMS id type x y z ix iy iz
1 1 0 0 0 0 0 0
2 2 0.102109 100.002 1.64601 0 -1 0
3 1 0.140548 100.012 3.23829 0 -1 0
ITEM: TIMESTEP
355
ITEM: NUMBER OF ATOMS
3
ITEM: BOX BOUNDS pp pp pp
0.0000000000000000e+00 1.0000000000000000e+02
0.0000000000000000e+00 1.0000000000000000e+02
0.0000000000000000e+00 1.0000000000000000e+03
ITEM: ATOMS id type x y z ix iy iz
1 1 0 0 0 0 0 0
2 2 0.099454 100.003 1.64932 0 -1 0
3 1 0.141447 100.012 3.24624 0 -1 0
ITEM: TIMESTEP
360
ITEM: NUMBER OF ATOMS
3
ITEM: BOX BOUNDS pp pp pp
0.0000000000000000e+00 1.0000000000000000e+02
0.0000000000000000e+00 1.0000000000000000e+02
0.0000000000000000e+00 1.0000000000000000e+03
ITEM: ATOMS id type x y z ix iy iz
1 1 0 0 0 0 0 0
2 2 0.0949502 100.003 1.65164 0 -1 0
3 1 0.14246 100.014 3.25405 0 -1 0
ITEM: TIMESTEP
365
ITEM: NUMBER OF ATOMS
3
ITEM: BOX BOUNDS pp pp pp
0.0000000000000000e+00 1.0000000000000000e+02
0.0000000000000000e+00 1.0000000000000000e+02
0.0000000000000000e+00 1.0000000000000000e+03
ITEM: ATOMS id type x y z ix iy iz
1 1 0 0 0 0 0 0
2 2 0.0895196 100.003 1.65238 0 -1 0
3 1 0.143405 100.014 3.26142 0 -1 0
ITEM: TIMESTEP
370
ITEM: NUMBER OF ATOMS
3
ITEM: BOX BOUNDS pp pp pp
0.0000000000000000e+00 1.0000000000000000e+02
0.0000000000000000e+00 1.0000000000000000e+02
0.0000000000000000e+00 1.0000000000000000e+03
ITEM: ATOMS id type x y z ix iy iz
1 1 0 0 0 0 0 0
2 2 0.084044 100.003 1.65302 0 -1 0
3 1 0.14414 100.015 3.26801 0 -1 0
ITEM: TIMESTEP
375
ITEM: NUMBER OF ATOMS
3
ITEM: BOX BOUNDS pp pp pp
0.0000000000000000e+00 1.0000000000000000e+02
0.0000000000000000e+00 1.0000000000000000e+02
0.0000000000000000e+00 1.0000000000000000e+03
ITEM: ATOMS id type x y z ix iy iz
1 1 0 0 0 0 0 0
2 2 0.078762 100.004 1.65345 0 -1 0
3 1 0.146421 100.015 3.27401 0 -1 0
ITEM: TIMESTEP
380
ITEM: NUMBER OF ATOMS
3
ITEM: BOX BOUNDS pp pp pp
0.0000000000000000e+00 1.0000000000000000e+02
0.0000000000000000e+00 1.0000000000000000e+02
0.0000000000000000e+00 1.0000000000000000e+03
ITEM: ATOMS id type x y z ix iy iz
1 1 0 0 0 0 0 0
2 2 0.0744234 100.005 1.65365 0 -1 0
3 1 0.148931 100.014 3.27838 0 -1 0
ITEM: TIMESTEP
385
ITEM: NUMBER OF ATOMS
3
ITEM: BOX BOUNDS pp pp pp
0.0000000000000000e+00 1.0000000000000000e+02
0.0000000000000000e+00 1.0000000000000000e+02
0.0000000000000000e+00 1.0000000000000000e+03
ITEM: ATOMS id type x y z ix iy iz
1 1 0 0 0 0 0 0
2 2 0.0706213 100.006 1.65346 0 -1 0
3 1 0.150827 100.014 3.28205 0 -1 0
ITEM: TIMESTEP
390
ITEM: NUMBER OF ATOMS
3
ITEM: BOX BOUNDS pp pp pp
0.0000000000000000e+00 1.0000000000000000e+02
0.0000000000000000e+00 1.0000000000000000e+02
0.0000000000000000e+00 1.0000000000000000e+03
ITEM: ATOMS id type x y z ix iy iz
1 1 0 0 0 0 0 0
2 2 0.0680803 100.007 1.65304 0 -1 0
3 1 0.152003 100.014 3.28549 0 -1 0
ITEM: TIMESTEP
395
ITEM: NUMBER OF ATOMS
3
ITEM: BOX BOUNDS pp pp pp
0.0000000000000000e+00 1.0000000000000000e+02
0.0000000000000000e+00 1.0000000000000000e+02
0.0000000000000000e+00 1.0000000000000000e+03
ITEM: ATOMS id type x y z ix iy iz
1 1 0 0 0 0 0 0
2 2 0.0660879 100.007 1.65164 0 -1 0
3 1 0.153382 100.013 3.2879 0 -1 0
ITEM: TIMESTEP
400
ITEM: NUMBER OF ATOMS
3
ITEM: BOX BOUNDS pp pp pp
0.0000000000000000e+00 1.0000000000000000e+02
0.0000000000000000e+00 1.0000000000000000e+02
0.0000000000000000e+00 1.0000000000000000e+03
ITEM: ATOMS id type x y z ix iy iz
1 1 0 0 0 0 0 0
2 2 0.0637327 100.008 1.65066 0 -1 0
3 1 0.154962 100.012 3.28923 0 -1 0
ITEM: TIMESTEP
405
ITEM: NUMBER OF ATOMS
3
ITEM: BOX BOUNDS pp pp pp
0.0000000000000000e+00 1.0000000000000000e+02
0.0000000000000000e+00 1.0000000000000000e+02
0.0000000000000000e+00 1.0000000000000000e+03
ITEM: ATOMS id type x y z ix iy iz
1 1 0 0 0 0 0 0
2 2 0.0623688 100.009 1.64964 0 -1 0
3 1 0.155873 100.01 3.28967 0 -1 0
ITEM: TIMESTEP
410
ITEM: NUMBER OF ATOMS
3
ITEM: BOX BOUNDS pp pp pp
0.0000000000000000e+00 1.0000000000000000e+02
0.0000000000000000e+00 1.0000000000000000e+02
0.0000000000000000e+00 1.0000000000000000e+03
ITEM: ATOMS id type x y z ix iy iz
1 1 0 0 0 0 0 0
2 2 0.0619973 100.009 1.64821 0 -1 0
3 1 0.156009 100.008 3.28986 0 -1 0
ITEM: TIMESTEP
415
ITEM: NUMBER OF ATOMS
3
ITEM: BOX BOUNDS pp pp pp
0.0000000000000000e+00 1.0000000000000000e+02
0.0000000000000000e+00 1.0000000000000000e+02
0.0000000000000000e+00 1.0000000000000000e+03
ITEM: ATOMS id type x y z ix iy iz
1 1 0 0 0 0 0 0
2 2 0.0615886 100.009 1.64662 0 -1 0
3 1 0.156262 100.007 3.28967 0 -1 0
ITEM: TIMESTEP
420
ITEM: NUMBER OF ATOMS
3
ITEM: BOX BOUNDS pp pp pp
0.0000000000000000e+00 1.0000000000000000e+02
0.0000000000000000e+00 1.0000000000000000e+02
0.0000000000000000e+00 1.0000000000000000e+03
ITEM: ATOMS id type x y z ix iy iz
1 1 0 0 0 0 0 0
2 2 0.0616826 100.009 1.64609 0 -1 0
3 1 0.15669 100.007 3.28737 0 -1 0
ITEM: TIMESTEP
425
ITEM: NUMBER OF ATOMS
3
ITEM: BOX BOUNDS pp pp pp
0.0000000000000000e+00 1.0000000000000000e+02
0.0000000000000000e+00 1.0000000000000000e+02
0.0000000000000000e+00 1.0000000000000000e+03
ITEM: ATOMS id type x y z ix iy iz
1 1 0 0 0 0 0 0
2 2 0.0639623 100.008 1.64638 0 -1 0
3 1 0.156844 100.007 3.28405 0 -1 0
ITEM: TIMESTEP
430
ITEM: NUMBER OF ATOMS
3
ITEM: BOX BOUNDS pp pp pp
0.0000000000000000e+00 1.0000000000000000e+02
0.0000000000000000e+00 1.0000000000000000e+02
0.0000000000000000e+00 1.0000000000000000e+03
ITEM: ATOMS id type x y z ix iy iz
1 1 0 0 0 0 0 0
2 2 0.0674529 100.007 1.64631 0 -1 0
3 1 0.155962 100.006 3.27945 0 -1 0
ITEM: TIMESTEP
435
ITEM: NUMBER OF ATOMS
3
ITEM: BOX BOUNDS pp pp pp
0.0000000000000000e+00 1.0000000000000000e+02
0.0000000000000000e+00 1.0000000000000000e+02
0.0000000000000000e+00 1.0000000000000000e+03
ITEM: ATOMS id type x y z ix iy iz
1 1 0 0 0 0 0 0
2 2 0.0711257 100.005 1.64724 0 -1 0
3 1 0.154597 100.007 3.27453 0 -1 0
ITEM: TIMESTEP
440
ITEM: NUMBER OF ATOMS
3
ITEM: BOX BOUNDS pp pp pp
0.0000000000000000e+00 1.0000000000000000e+02
0.0000000000000000e+00 1.0000000000000000e+02
0.0000000000000000e+00 1.0000000000000000e+03
ITEM: ATOMS id type x y z ix iy iz
1 1 0 0 0 0 0 0
2 2 0.0741317 100.003 1.64956 0 -1 0
3 1 0.153317 100.007 3.26916 0 -1 0
ITEM: TIMESTEP
445
ITEM: NUMBER OF ATOMS
3
ITEM: BOX BOUNDS pp pp pp
0.0000000000000000e+00 1.0000000000000000e+02
0.0000000000000000e+00 1.0000000000000000e+02
0.0000000000000000e+00 1.0000000000000000e+03
ITEM: ATOMS id type x y z ix iy iz
1 1 0 0 0 0 0 0
2 2 0.0776216 100.002 1.65201 0 -1 0